/*--------------------------------*- C++ -*----------------------------------*\
| =========                 |                                                 |
| \\      /  F ield         | OpenFOAM: The Open Source CFD Toolbox           |
|  \\    /   O peration     | Version:  4.1                                   |
|   \\  /    A nd           | Web:      www.OpenFOAM.org                      |
|    \\/     M anipulation  |                                                 |
\*---------------------------------------------------------------------------*/
FoamFile
{
    version     2.0;
    format      ascii;
    class       volScalarField;
    location    "4";
    object      epsilon;
}
// * * * * * * * * * * * * * * * * * * * * * * * * * * * * * * * * * * * * * //

dimensions      [0 2 -3 0 0 0 0];

internalField   nonuniform List<scalar> 
400
(
0.000111915
0.000367543
0.00139477
0.00337163
0.00564002
0.00744651
0.00870001
0.00939048
0.00969562
0.00977308
0.00955012
0.00907829
0.00846236
0.00773519
0.00706676
0.00635307
0.00577354
0.00518247
0.00399322
0.00320867
0.000282754
0.000792629
0.00188457
0.00299514
0.00351023
0.00359415
0.00329338
0.00292385
0.00252322
0.00222693
0.00202817
0.00195623
0.00198455
0.00225542
0.00260273
0.00319871
0.00410512
0.00541561
0.00709203
0.00795331
0.00075233
0.00125599
0.00182498
0.00205233
0.00184799
0.00158355
0.00130881
0.00114763
0.00106929
0.00104351
0.00104842
0.00111939
0.00122982
0.00142316
0.00175026
0.00233085
0.00336429
0.00517971
0.00846037
0.0130076
0.00133916
0.00134418
0.0015379
0.00135953
0.0010845
0.000891207
0.000774891
0.000723644
0.000702514
0.000696412
0.000705581
0.000734487
0.000790954
0.000898973
0.00112024
0.00157077
0.00250061
0.00441038
0.00871876
0.0166776
0.0018086
0.00128998
0.00122042
0.000940018
0.000720164
0.000598894
0.000530316
0.000491669
0.000467323
0.000456373
0.000453862
0.000471755
0.000511775
0.000595964
0.000772446
0.00115856
0.00201842
0.0039107
0.00867974
0.0196549
0.00223988
0.00117275
0.000962094
0.000690692
0.000524738
0.000439508
0.000384941
0.000347632
0.000324282
0.00031396
0.000311999
0.000329193
0.000362983
0.000427753
0.000561032
0.00087205
0.00165484
0.00356529
0.00862841
0.0220933
0.00273737
0.00104331
0.000774943
0.000540601
0.000413876
0.000347267
0.000298849
0.000264248
0.000244482
0.000236711
0.000236302
0.000253191
0.000282102
0.000332386
0.000432644
0.000675895
0.00136405
0.00325123
0.00863318
0.0242793
0.00324056
0.000953678
0.00064325
0.000451077
0.000350625
0.000293442
0.000248515
0.00021554
0.000196202
0.00018802
0.000186899
0.000200909
0.000225512
0.00026592
0.000342651
0.000530861
0.00113164
0.00299014
0.0087477
0.0262956
0.00374066
0.000880068
0.000553239
0.000395162
0.000313128
0.000260856
0.000217441
0.000184103
0.000161952
0.000151039
0.000148051
0.000158065
0.000180166
0.000216381
0.0002793
0.000422733
0.00092345
0.0027263
0.00898271
0.0282983
0.00433418
0.000875475
0.000495006
0.000361068
0.000290241
0.000240212
0.000196927
0.000162063
0.00013718
0.000123524
0.000118856
0.000124926
0.000144192
0.000179666
0.000237157
0.000354443
0.000760723
0.00247906
0.00923669
0.0303595
0.00477911
0.000933493
0.000457446
0.000336769
0.000275165
0.000226726
0.000183015
0.000147561
0.000122331
0.000108127
0.000103453
0.000108884
0.000125443
0.000159326
0.000214575
0.000321228
0.000637441
0.00224312
0.00957951
0.0326097
0.00513904
0.00109593
0.000463108
0.000323096
0.000262901
0.000216831
0.000176896
0.000143984
0.000119837
0.000105159
0.000100252
0.000104278
0.00011896
0.000151172
0.00020509
0.000309682
0.000577077
0.00205388
0.00987208
0.0351684
0.00512336
0.00133775
0.000495902
0.000325937
0.000261058
0.000216339
0.000178166
0.000146644
0.000123229
0.0001084
0.000104188
0.000107414
0.000119382
0.000149782
0.000203225
0.000308729
0.00055261
0.00196107
0.010145
0.0382372
0.00493587
0.00162534
0.000577051
0.000343216
0.000265959
0.00021979
0.000183449
0.000154639
0.000133079
0.000118162
0.000113812
0.000116756
0.000128462
0.000159686
0.000214792
0.000327699
0.000548847
0.00193941
0.0105437
0.0420747
0.00440361
0.0018542
0.000717983
0.000390409
0.000285068
0.000231827
0.000195483
0.000168602
0.000149485
0.00013472
0.000128693
0.000131255
0.000143059
0.000176823
0.000237038
0.000360391
0.000585146
0.00208767
0.0120657
0.0470618
0.00353841
0.0018269
0.000904459
0.000506884
0.000340878
0.000265519
0.000222555
0.000193229
0.00017342
0.000157877
0.000151237
0.000154261
0.000168485
0.000209589
0.000286253
0.000422292
0.000698954
0.00251816
0.0144685
0.0540268
0.00221531
0.00155203
0.000940873
0.000604679
0.000437832
0.000345446
0.000289987
0.000253315
0.000230949
0.000214966
0.000214522
0.000222784
0.000249649
0.000321529
0.000445378
0.000634777
0.0010906
0.0038674
0.0190509
0.0641333
0.00198541
0.00130535
0.00111678
0.000918634
0.000793415
0.000715381
0.00067004
0.000652893
0.000658003
0.000681273
0.000730125
0.000819095
0.000943163
0.00111133
0.00134394
0.00182049
0.00317821
0.00894102
0.0303003
0.080554
0.00298337
0.00502093
0.00670036
0.00743442
0.00780938
0.00809878
0.00837632
0.00875036
0.00914088
0.00968996
0.010284
0.0110951
0.0120085
0.0132038
0.014546
0.0166088
0.0221087
0.0368081
0.0704244
0.113645
0.0434517
0.0889977
0.125857
0.143137
0.150056
0.152621
0.153382
0.153839
0.154092
0.154708
0.155294
0.156647
0.157641
0.159799
0.161409
0.16475
0.167937
0.172009
0.185988
0.158619
)
;

boundaryField
{
    movingWall
    {
        Cmu             0.09;
        kappa           0.41;
        E               9.8;
        type            epsilonWallFunction;
        value           nonuniform List<scalar> 
20
(
0.0434517
0.0889977
0.125857
0.143137
0.150056
0.152621
0.153382
0.153839
0.154092
0.154708
0.155294
0.156647
0.157641
0.159799
0.161409
0.16475
0.167937
0.172009
0.185988
0.158619
)
;
    }
    fixedWalls
    {
        Cmu             0.09;
        kappa           0.41;
        E               9.8;
        type            epsilonWallFunction;
        value           nonuniform List<scalar> 
60
(
0.000111915
0.000282754
0.00075233
0.00133916
0.0018086
0.00223988
0.00273737
0.00324056
0.00374066
0.00433418
0.00477911
0.00513904
0.00512336
0.00493587
0.00440361
0.00353841
0.00221531
0.00198541
0.00298337
0.0434517
0.00320867
0.00795331
0.0130076
0.0166776
0.0196549
0.0220933
0.0242793
0.0262956
0.0282983
0.0303595
0.0326097
0.0351684
0.0382372
0.0420747
0.0470618
0.0540268
0.0641333
0.080554
0.113645
0.158619
0.000111915
0.000367543
0.00139477
0.00337163
0.00564002
0.00744651
0.00870001
0.00939048
0.00969562
0.00977308
0.00955012
0.00907829
0.00846236
0.00773519
0.00706676
0.00635307
0.00577354
0.00518247
0.00399322
0.00320867
)
;
    }
    frontAndBack
    {
        type            empty;
    }
}


// ************************************************************************* //
