/*--------------------------------*- C++ -*----------------------------------*\
| =========                 |                                                 |
| \\      /  F ield         | OpenFOAM: The Open Source CFD Toolbox           |
|  \\    /   O peration     | Version:  4.1                                   |
|   \\  /    A nd           | Web:      www.OpenFOAM.org                      |
|    \\/     M anipulation  |                                                 |
\*---------------------------------------------------------------------------*/
FoamFile
{
    version     2.0;
    format      ascii;
    class       volScalarField;
    location    "4";
    object      k;
}
// * * * * * * * * * * * * * * * * * * * * * * * * * * * * * * * * * * * * * //

dimensions      [0 2 -2 0 0 0 0];

internalField   nonuniform List<scalar> 
400
(
7.89159e-05
0.000174123
0.000423357
0.000762371
0.00107418
0.00129277
0.00143409
0.00150905
0.00154159
0.00154981
0.0015262
0.00147551
0.00140803
0.00132617
0.00124865
0.00116309
0.0010913
0.00101551
0.000853526
0.000737614
0.000146253
0.000333158
0.000595042
0.000768514
0.000846727
0.000847551
0.000785385
0.000747376
0.00070673
0.000688332
0.000681156
0.000689211
0.00072865
0.000781897
0.000867854
0.000982872
0.00112676
0.00127123
0.00136752
0.001351
0.00028058
0.000511522
0.000619674
0.00065907
0.000580306
0.000547911
0.000524741
0.000517947
0.000518271
0.000531407
0.000541987
0.0005568
0.000579796
0.000614741
0.000678978
0.000785199
0.000957756
0.00121135
0.001556
0.00187533
0.000412034
0.000557826
0.000581909
0.000511592
0.000472241
0.000461296
0.000459875
0.000473828
0.000480727
0.000487265
0.000489693
0.000490631
0.000495772
0.000510627
0.000553425
0.000644601
0.000814222
0.00109575
0.00158218
0.00221324
0.000503354
0.000549658
0.000510072
0.000442203
0.000422804
0.000420073
0.000427744
0.000435059
0.000437969
0.000441274
0.000442744
0.000445096
0.000448982
0.00045977
0.00049078
0.000570808
0.000740134
0.00103417
0.00158192
0.00246935
0.000580495
0.00053039
0.000449927
0.000402105
0.000391894
0.000392176
0.000398733
0.000400694
0.000401118
0.000403709
0.000408792
0.000416495
0.000425819
0.000437498
0.000461032
0.000524111
0.000682449
0.000993456
0.0015896
0.00266953
0.00066351
0.000491724
0.000408761
0.000375769
0.000370917
0.000374934
0.000377024
0.000375204
0.000372299
0.000371558
0.000377098
0.000388038
0.000402625
0.000418902
0.00044115
0.000490378
0.000631662
0.000949185
0.00161147
0.0028428
0.000742548
0.000457029
0.000379866
0.00035933
0.000359297
0.000363295
0.000362346
0.000353336
0.000342113
0.000336467
0.000335701
0.000345592
0.000363445
0.000385946
0.00041331
0.000457316
0.000584173
0.00090226
0.00164076
0.00299801
0.000817032
0.000434895
0.000359724
0.00034635
0.000352142
0.000355227
0.00034871
0.000330961
0.000309337
0.000293389
0.000286895
0.00029131
0.000311119
0.000341115
0.000378373
0.000423622
0.000534908
0.000846448
0.00167982
0.00314828
0.000901383
0.000415633
0.000342582
0.000337056
0.000346434
0.000347423
0.000334488
0.000309021
0.00027872
0.000253936
0.000242539
0.000241577
0.000259141
0.000294293
0.000342572
0.00039447
0.000489795
0.000788761
0.0017177
0.00329924
0.000961982
0.000419394
0.000329857
0.00032582
0.000337283
0.000337373
0.000320893
0.000291869
0.000258558
0.000231498
0.000218296
0.000218261
0.000231919
0.000262532
0.000313358
0.000375054
0.000449384
0.000728842
0.00175949
0.00346015
0.00100983
0.000434365
0.000320683
0.000316288
0.000326513
0.000325609
0.000310735
0.000282107
0.000252206
0.000227637
0.000213395
0.00021316
0.000223758
0.000249988
0.000295978
0.000365764
0.000419119
0.0006744
0.00179373
0.00363867
0.00100786
0.000465449
0.000322437
0.000305156
0.000313109
0.000313303
0.00030407
0.00028132
0.000254652
0.000232331
0.000218823
0.000218482
0.000225298
0.000247729
0.000288868
0.000362014
0.000397352
0.000624696
0.00182156
0.00384715
0.000983322
0.000504685
0.000330468
0.00029937
0.000298734
0.000298511
0.0002942
0.000281038
0.000261489
0.000243594
0.000229653
0.000228667
0.000234584
0.000254609
0.000287568
0.000359431
0.000379986
0.000598486
0.00185433
0.00410015
0.000911759
0.000552429
0.000348037
0.000302179
0.000293828
0.000289137
0.000284568
0.000278157
0.000266023
0.00025377
0.000240424
0.000238836
0.000244011
0.000262726
0.000288235
0.000347115
0.000355681
0.000587197
0.00197743
0.00441771
0.000788739
0.000553364
0.000383844
0.000314207
0.00029853
0.000291761
0.000285953
0.000279506
0.000269888
0.000261427
0.000248805
0.000246404
0.00025035
0.000265784
0.000282824
0.00032023
0.000343272
0.000600262
0.00217977
0.00484321
0.000577589
0.000518056
0.000397634
0.000335609
0.000315144
0.000305356
0.000296672
0.000287514
0.000276637
0.000268546
0.000255838
0.00025136
0.00025367
0.000263957
0.000277285
0.000306613
0.000349532
0.000728007
0.00255135
0.00542944
0.000536398
0.000453132
0.000429216
0.000390329
0.000369246
0.000355394
0.000342906
0.000330586
0.000316989
0.000310393
0.000301578
0.000301824
0.000306012
0.000316741
0.000342553
0.00040068
0.000566975
0.00122885
0.00338883
0.0063203
0.000703114
0.000782779
0.00091737
0.000963599
0.000984386
0.00100403
0.00102644
0.00106108
0.00109776
0.00115545
0.00122062
0.00131061
0.00142016
0.0015542
0.00173427
0.0019363
0.00238322
0.00346869
0.00589716
0.00794989
0.00418907
0.0067553
0.00850966
0.00927058
0.0095663
0.00967461
0.00970664
0.00972578
0.00973633
0.00976204
0.0097866
0.00984315
0.00988487
0.00997513
0.0100424
0.010181
0.0103122
0.0104785
0.0110396
0.00992846
)
;

boundaryField
{
    movingWall
    {
        type            kqRWallFunction;
        value           nonuniform List<scalar> 
20
(
0.00418907
0.0067553
0.00850966
0.00927058
0.0095663
0.00967461
0.00970664
0.00972578
0.00973633
0.00976204
0.0097866
0.00984315
0.00988487
0.00997513
0.0100424
0.010181
0.0103122
0.0104785
0.0110396
0.00992846
)
;
    }
    fixedWalls
    {
        type            kqRWallFunction;
        value           nonuniform List<scalar> 
60
(
7.89159e-05
0.000146253
0.00028058
0.000412034
0.000503354
0.000580495
0.00066351
0.000742548
0.000817032
0.000901383
0.000961982
0.00100983
0.00100786
0.000983322
0.000911759
0.000788739
0.000577589
0.000536398
0.000703114
0.00418907
0.000737614
0.001351
0.00187533
0.00221324
0.00246935
0.00266953
0.0028428
0.00299801
0.00314828
0.00329924
0.00346015
0.00363867
0.00384715
0.00410015
0.00441771
0.00484321
0.00542944
0.0063203
0.00794989
0.00992846
7.89159e-05
0.000174123
0.000423357
0.000762371
0.00107418
0.00129277
0.00143409
0.00150905
0.00154159
0.00154981
0.0015262
0.00147551
0.00140803
0.00132617
0.00124865
0.00116309
0.0010913
0.00101551
0.000853526
0.000737614
)
;
    }
    frontAndBack
    {
        type            empty;
    }
}


// ************************************************************************* //
