/*--------------------------------*- C++ -*----------------------------------*\
| =========                 |                                                 |
| \\      /  F ield         | OpenFOAM: The Open Source CFD Toolbox           |
|  \\    /   O peration     | Version:  4.1                                   |
|   \\  /    A nd           | Web:      www.OpenFOAM.org                      |
|    \\/     M anipulation  |                                                 |
\*---------------------------------------------------------------------------*/
FoamFile
{
    version     2.0;
    format      ascii;
    class       volScalarField;
    location    "4";
    object      nut;
}
// * * * * * * * * * * * * * * * * * * * * * * * * * * * * * * * * * * * * * //

dimensions      [0 2 -1 0 0 0 0];

internalField   nonuniform List<scalar> 
400
(
5.0082e-06
7.42414e-06
1.15652e-05
1.55144e-05
1.84126e-05
2.01992e-05
2.12753e-05
2.18252e-05
2.206e-05
2.21191e-05
2.1951e-05
2.15836e-05
2.10851e-05
2.0463e-05
1.98565e-05
1.9164e-05
1.85649e-05
1.79093e-05
1.64192e-05
1.52608e-05
6.80835e-06
1.2603e-05
1.69093e-05
1.77471e-05
1.8382e-05
1.79878e-05
1.68565e-05
1.71935e-05
1.78153e-05
1.91483e-05
2.05888e-05
2.18538e-05
2.40779e-05
2.43958e-05
2.60439e-05
2.71808e-05
2.78342e-05
2.68563e-05
2.37323e-05
2.0654e-05
9.41778e-06
1.87494e-05
1.8937e-05
1.90484e-05
1.64005e-05
1.7062e-05
1.89345e-05
2.10383e-05
2.26078e-05
2.43557e-05
2.52165e-05
2.49264e-05
2.46009e-05
2.38986e-05
2.37057e-05
2.38061e-05
2.45391e-05
2.54962e-05
2.57555e-05
2.43332e-05
1.14097e-05
2.08344e-05
1.98164e-05
1.73262e-05
1.85072e-05
2.14894e-05
2.4563e-05
2.79228e-05
2.96063e-05
3.06836e-05
3.05874e-05
2.94963e-05
2.79676e-05
2.61038e-05
2.46064e-05
2.38074e-05
2.38606e-05
2.45015e-05
2.58403e-05
2.64342e-05
1.2608e-05
2.10788e-05
1.91865e-05
1.87219e-05
2.23403e-05
2.65181e-05
3.10511e-05
3.46471e-05
3.69412e-05
3.84006e-05
3.88707e-05
3.7795e-05
3.54505e-05
3.1923e-05
2.80639e-05
2.53107e-05
2.44259e-05
2.46136e-05
2.5948e-05
2.79214e-05
1.35399e-05
2.15887e-05
1.89369e-05
2.10686e-05
2.63413e-05
3.14947e-05
3.71718e-05
4.1567e-05
4.46545e-05
4.67202e-05
4.82053e-05
4.74254e-05
4.4958e-05
4.02718e-05
3.40971e-05
2.83497e-05
2.53295e-05
2.49141e-05
2.63564e-05
2.90304e-05
1.44745e-05
2.0858e-05
1.9405e-05
2.35076e-05
2.99175e-05
3.64326e-05
4.28084e-05
4.79473e-05
5.10246e-05
5.249e-05
5.41605e-05
5.35233e-05
5.17174e-05
4.75144e-05
4.0484e-05
3.20203e-05
2.63259e-05
2.494e-05
2.70716e-05
2.9957e-05
1.53134e-05
1.97119e-05
2.01894e-05
2.5762e-05
3.31365e-05
4.04798e-05
4.75484e-05
5.21304e-05
5.36882e-05
5.41906e-05
5.42678e-05
5.3502e-05
5.27171e-05
5.04131e-05
4.48686e-05
3.54563e-05
2.71406e-05
2.45027e-05
2.76973e-05
3.07628e-05
1.6061e-05
1.93417e-05
2.10508e-05
2.73211e-05
3.56415e-05
4.35366e-05
5.03303e-05
5.35469e-05
5.31763e-05
5.1291e-05
5.00353e-05
4.83191e-05
4.83528e-05
4.83977e-05
4.61331e-05
3.82061e-05
2.78861e-05
2.36521e-05
2.82724e-05
3.15231e-05
1.68715e-05
1.7759e-05
2.13383e-05
2.83177e-05
3.72155e-05
4.52238e-05
5.11325e-05
5.30316e-05
5.09666e-05
4.69827e-05
4.45436e-05
4.20437e-05
4.19154e-05
4.33849e-05
4.45358e-05
3.95117e-05
2.83821e-05
2.25864e-05
2.87489e-05
3.22682e-05
1.74273e-05
1.6958e-05
2.1407e-05
2.83704e-05
3.72082e-05
4.51815e-05
5.0638e-05
5.19573e-05
4.91838e-05
4.46069e-05
4.14566e-05
3.9376e-05
3.85895e-05
3.89332e-05
4.11855e-05
3.94109e-05
2.85127e-05
2.13136e-05
2.90854e-05
3.30435e-05
1.78591e-05
1.54941e-05
1.99854e-05
2.78662e-05
3.64964e-05
4.40063e-05
4.91253e-05
4.97458e-05
4.77708e-05
4.43487e-05
4.08805e-05
3.92157e-05
3.78789e-05
3.72056e-05
3.84429e-05
3.88803e-05
2.73957e-05
1.99298e-05
2.93325e-05
3.38825e-05
1.78438e-05
1.45752e-05
1.88684e-05
2.57129e-05
3.37985e-05
4.08355e-05
4.6705e-05
4.85713e-05
4.73614e-05
4.48155e-05
4.13628e-05
3.99957e-05
3.82663e-05
3.68753e-05
3.69543e-05
3.82046e-05
2.57144e-05
1.79096e-05
2.94356e-05
3.48365e-05
1.76308e-05
1.41038e-05
1.70329e-05
2.35013e-05
3.01993e-05
3.64884e-05
4.24632e-05
4.59678e-05
4.62425e-05
4.5196e-05
4.17059e-05
4.03061e-05
3.85536e-05
3.65361e-05
3.46503e-05
3.54812e-05
2.3677e-05
1.66219e-05
2.93508e-05
3.59601e-05
1.699e-05
1.48128e-05
1.51837e-05
2.10499e-05
2.7257e-05
3.24553e-05
3.72826e-05
4.1301e-05
4.26073e-05
4.3022e-05
4.04243e-05
3.91134e-05
3.74579e-05
3.51325e-05
3.15442e-05
3.00896e-05
1.94581e-05
1.48645e-05
2.91669e-05
3.73223e-05
1.58235e-05
1.50852e-05
1.4661e-05
1.75294e-05
2.35299e-05
2.88537e-05
3.30671e-05
3.63876e-05
3.78016e-05
3.89605e-05
3.68385e-05
3.54225e-05
3.34793e-05
3.03341e-05
2.51493e-05
2.18552e-05
1.51729e-05
1.28778e-05
2.95558e-05
3.90751e-05
1.35533e-05
1.55631e-05
1.51244e-05
1.67642e-05
2.04151e-05
2.42927e-05
2.73161e-05
2.93698e-05
2.98227e-05
3.01932e-05
2.74601e-05
2.55242e-05
2.31981e-05
1.95025e-05
1.5537e-05
1.33291e-05
1.00821e-05
1.23337e-05
3.07514e-05
4.13684e-05
1.30427e-05
1.41568e-05
1.48466e-05
1.49266e-05
1.54659e-05
1.58901e-05
1.5794e-05
1.5065e-05
1.37436e-05
1.27276e-05
1.1211e-05
1.00096e-05
8.93576e-06
8.12469e-06
7.85813e-06
7.9369e-06
9.10307e-06
1.52003e-05
3.41109e-05
4.46304e-05
1.49138e-05
1.09834e-05
1.1304e-05
1.12406e-05
1.11675e-05
1.12024e-05
1.13202e-05
1.15802e-05
1.1865e-05
1.24e-05
1.3039e-05
1.39335e-05
1.51157e-05
1.64647e-05
1.86093e-05
2.03165e-05
2.31212e-05
2.94191e-05
4.44432e-05
5.00512e-05
3.63471e-05
4.61481e-05
5.17834e-05
5.40387e-05
5.48878e-05
5.51945e-05
5.52847e-05
5.53381e-05
5.53674e-05
5.54385e-05
5.55073e-05
5.56657e-05
5.57846e-05
5.60409e-05
5.62333e-05
5.66239e-05
5.699e-05
5.74501e-05
5.8974e-05
5.59307e-05
)
;

boundaryField
{
    movingWall
    {
        type            nutkWallFunction;
        Cmu             0.09;
        kappa           0.41;
        E               9.8;
        value           nonuniform List<scalar> 
20
(
0
0
7.47846e-07
1.11927e-06
1.25887e-06
1.30937e-06
1.32424e-06
1.33312e-06
1.338e-06
1.3499e-06
1.36125e-06
1.38731e-06
1.40649e-06
1.44781e-06
1.4785e-06
1.54129e-06
1.60027e-06
1.67444e-06
1.91976e-06
1.42648e-06
)
;
    }
    fixedWalls
    {
        type            nutkWallFunction;
        Cmu             0.09;
        kappa           0.41;
        E               9.8;
        value           nonuniform List<scalar> 
60
(
0
0
0
0
0
0
0
0
0
0
0
0
0
0
0
0
0
0
0
0
0
0
0
0
0
0
0
0
0
0
0
0
0
0
0
0
0
0
4.62206e-07
1.42648e-06
0
0
0
0
0
0
0
0
0
0
0
0
0
0
0
0
0
0
0
0
)
;
    }
    frontAndBack
    {
        type            empty;
    }
}


// ************************************************************************* //
