/*--------------------------------*- C++ -*----------------------------------*\
| =========                 |                                                 |
| \\      /  F ield         | OpenFOAM: The Open Source CFD Toolbox           |
|  \\    /   O peration     | Version:  4.1                                   |
|   \\  /    A nd           | Web:      www.OpenFOAM.org                      |
|    \\/     M anipulation  |                                                 |
\*---------------------------------------------------------------------------*/
FoamFile
{
    version     2.0;
    format      ascii;
    class       volScalarField;
    location    "4";
    object      p;
}
// * * * * * * * * * * * * * * * * * * * * * * * * * * * * * * * * * * * * * //

dimensions      [0 2 -2 0 0 0 0];

internalField   nonuniform List<scalar> 
400
(
6.69869e-08
-7.27107e-05
-0.000168222
-0.000400764
-0.00100217
-0.00199283
-0.00321104
-0.00442041
-0.00542861
-0.0061418
-0.00649578
-0.00643812
-0.00588955
-0.00475933
-0.00297126
-0.000527409
0.00237089
0.00520739
0.00713429
0.00766806
9.76232e-05
4.87862e-06
-0.000189285
-0.000641988
-0.00146053
-0.00259253
-0.00383873
-0.00500533
-0.00598172
-0.00666764
-0.00700721
-0.00696989
-0.00651805
-0.00557602
-0.00402896
-0.00184491
0.000883805
0.00374698
0.00593703
0.00681129
0.000141284
-8.16383e-05
-0.000524005
-0.00130781
-0.00242866
-0.0037182
-0.00497972
-0.00611413
-0.00704622
-0.00766235
-0.00794972
-0.00790704
-0.00752896
-0.00677933
-0.0055782
-0.00382106
-0.00147987
0.00125607
0.0036948
0.00492484
-0.000135457
-0.000502586
-0.00123178
-0.00234728
-0.00370783
-0.00508358
-0.0063309
-0.00736069
-0.00810199
-0.00856526
-0.00876777
-0.00871496
-0.00840513
-0.00783393
-0.0069597
-0.00568184
-0.00387176
-0.00151907
0.000890994
0.00223915
-0.000833145
-0.00132165
-0.00226274
-0.00358822
-0.00502795
-0.0063524
-0.00746485
-0.00832769
-0.00892918
-0.00929231
-0.00942914
-0.00935164
-0.00908189
-0.00863135
-0.00799248
-0.0071039
-0.00581982
-0.00399932
-0.00185452
-0.000571049
-0.00189098
-0.00243043
-0.00345495
-0.00481819
-0.00619937
-0.00739412
-0.0083539
-0.00908132
-0.00958862
-0.00988935
-0.0099885
-0.00989947
-0.00964719
-0.00926079
-0.00875948
-0.00812315
-0.00725638
-0.00595089
-0.00427808
-0.00308813
-0.00307732
-0.00361582
-0.00462721
-0.00591474
-0.00717255
-0.00822819
-0.0090697
-0.00971151
-0.0101648
-0.0104325
-0.0105131
-0.0104167
-0.0101689
-0.00981056
-0.00937983
-0.00888337
-0.00828445
-0.00736473
-0.00618509
-0.00514232
-0.00417626
-0.00467685
-0.00562845
-0.0068123
-0.00794729
-0.00889521
-0.00966217
-0.0102597
-0.0106909
-0.0109479
-0.0110211
-0.010917
-0.010662
-0.010305
-0.00989938
-0.0094683
-0.00902576
-0.0083608
-0.00758034
-0.00668397
-0.00503717
-0.00550104
-0.00638421
-0.00748543
-0.00852953
-0.00941207
-0.0101441
-0.0107306
-0.011166
-0.011432
-0.0115093
-0.0113985
-0.0111256
-0.0107462
-0.0103299
-0.00990685
-0.00955039
-0.0090201
-0.00850619
-0.00775128
-0.0056056
-0.00602483
-0.00685666
-0.00791222
-0.00890797
-0.00976706
-0.0104984
-0.0111011
-0.0115621
-0.011855
-0.0119488
-0.0118351
-0.0115367
-0.011114
-0.0106578
-0.0101919
-0.00988547
-0.0093768
-0.00906343
-0.00837278
-0.00585105
-0.00624705
-0.00704073
-0.00807686
-0.00906226
-0.00993372
-0.0106908
-0.0113291
-0.0118286
-0.0121581
-0.0122763
-0.0121629
-0.0118352
-0.0113558
-0.010841
-0.0102933
-0.0100256
-0.00943
-0.0093204
-0.00855904
-0.00577626
-0.00616493
-0.00693584
-0.0079589
-0.00896662
-0.00987668
-0.0106785
-0.0113617
-0.0119043
-0.0122687
-0.0124096
-0.0122977
-0.0119426
-0.011404
-0.0108194
-0.0101896
-0.00991839
-0.0091806
-0.00932079
-0.00829552
-0.00545314
-0.00582783
-0.00657095
-0.00756038
-0.00860801
-0.00956916
-0.0104258
-0.0111616
-0.0117485
-0.012144
-0.0123017
-0.0121885
-0.0118077
-0.0112155
-0.0105554
-0.00987053
-0.00951549
-0.00867668
-0.00904083
-0.00760702
-0.00497458
-0.0052911
-0.0059759
-0.00690523
-0.00796765
-0.00898409
-0.00990807
-0.0107085
-0.0113471
-0.0117761
-0.0119491
-0.0118326
-0.0114273
-0.0107841
-0.0100537
-0.00931271
-0.00885103
-0.00797862
-0.00844465
-0.00663127
-0.00448342
-0.00467454
-0.00522851
-0.00605429
-0.00707588
-0.00813145
-0.00913067
-0.0100101
-0.0107138
-0.011186
-0.0113804
-0.0112643
-0.0108398
-0.0101533
-0.00935979
-0.00855615
-0.00799558
-0.00710261
-0.00760338
-0.00552818
-0.00407257
-0.00405938
-0.0043927
-0.00503734
-0.00595781
-0.0070289
-0.0081116
-0.00909043
-0.00988208
-0.0104192
-0.0106547
-0.0105556
-0.0101333
-0.00942248
-0.00857901
-0.0077117
-0.00704172
-0.00605745
-0.006549
-0.00405587
-0.00383097
-0.00358601
-0.00359847
-0.00397223
-0.00473041
-0.00577943
-0.00693564
-0.00802419
-0.00892647
-0.00955797
-0.00986869
-0.00982816
-0.00944411
-0.00873595
-0.00785465
-0.00690119
-0.00605607
-0.00480868
-0.00488741
-0.000636469
-0.00347669
-0.00305641
-0.0028369
-0.00290837
-0.00350699
-0.00453707
-0.00575967
-0.00694784
-0.00796163
-0.00869975
-0.00910903
-0.00914474
-0.00881792
-0.00815168
-0.00724844
-0.00615145
-0.00496105
-0.00302551
-0.00121302
0.00812733
-0.00500092
-0.00359768
-0.00262456
-0.00224455
-0.00268339
-0.00369237
-0.00496822
-0.00624531
-0.00736021
-0.00820291
-0.00871524
-0.00886083
-0.00862442
-0.00800027
-0.00697087
-0.00548907
-0.00345383
0.000151385
0.00586137
0.0230819
-0.000578871
0.000863983
0.000187903
-0.00065868
-0.00168364
-0.00294791
-0.00435605
-0.00573829
-0.00693117
-0.00783268
-0.00836762
-0.00850563
-0.00820537
-0.0074547
-0.00618931
-0.00429132
-0.00109524
0.00493134
0.0153945
0.0343399
)
;

boundaryField
{
    movingWall
    {
        type            zeroGradient;
    }
    fixedWalls
    {
        type            zeroGradient;
    }
    frontAndBack
    {
        type            empty;
    }
}


// ************************************************************************* //
