/*--------------------------------*- C++ -*----------------------------------*\
| =========                 |                                                 |
| \\      /  F ield         | OpenFOAM: The Open Source CFD Toolbox           |
|  \\    /   O peration     | Version:  4.1                                   |
|   \\  /    A nd           | Web:      www.OpenFOAM.org                      |
|    \\/     M anipulation  |                                                 |
\*---------------------------------------------------------------------------*/
FoamFile
{
    version     2.0;
    format      ascii;
    class       surfaceScalarField;
    location    "4";
    object      phi;
}
// * * * * * * * * * * * * * * * * * * * * * * * * * * * * * * * * * * * * * //

dimensions      [0 3 -1 0 0 0 0];

internalField   nonuniform List<scalar> 
760
(
1.19712e-08
-1.19778e-08
-2.61641e-07
2.73612e-07
-9.10867e-07
6.49226e-07
-1.8989e-06
9.88037e-07
-3.01431e-06
1.1154e-06
-4.10343e-06
1.08913e-06
-5.06587e-06
9.62439e-07
-5.86354e-06
7.97664e-07
-6.46706e-06
6.03521e-07
-6.91134e-06
4.44282e-07
-7.18804e-06
2.767e-07
-7.31147e-06
1.23427e-07
-7.26626e-06
-4.52046e-08
-7.02225e-06
-2.44011e-07
-6.54451e-06
-4.77748e-07
-5.73701e-06
-8.07493e-07
-4.54589e-06
-1.19112e-06
-2.97043e-06
-1.57546e-06
-1.26268e-06
-1.70775e-06
-1.26268e-06
-4.10007e-07
3.98029e-07
-1.18189e-06
1.0455e-06
-2.22746e-06
1.69479e-06
-3.3389e-06
2.09948e-06
-4.38514e-06
2.16164e-06
-5.28349e-06
1.98747e-06
-6.01276e-06
1.69171e-06
-6.57543e-06
1.36033e-06
-7.0131e-06
1.0412e-06
-7.30578e-06
7.36957e-07
-7.46029e-06
4.31209e-07
-7.46685e-06
1.29994e-07
-7.34071e-06
-1.7135e-07
-7.08374e-06
-5.00976e-07
-6.63055e-06
-9.30943e-07
-5.93223e-06
-1.50581e-06
-4.88855e-06
-2.2348e-06
-3.4398e-06
-3.02421e-06
-1.67145e-06
-3.47611e-06
-2.93412e-06
-7.97345e-07
1.19537e-06
-1.82559e-06
2.07374e-06
-2.89213e-06
2.76134e-06
-3.86044e-06
3.06779e-06
-4.6635e-06
2.96471e-06
-5.28199e-06
2.60596e-06
-5.74228e-06
2.152e-06
-6.04179e-06
1.65984e-06
-6.21547e-06
1.21488e-06
-6.26635e-06
7.87842e-07
-6.25103e-06
4.15884e-07
-6.18031e-06
5.92811e-08
-6.05531e-06
-2.9635e-07
-5.85109e-06
-7.05197e-07
-5.55339e-06
-1.22865e-06
-5.10629e-06
-1.95291e-06
-4.39365e-06
-2.94743e-06
-3.2787e-06
-4.13917e-06
-1.75859e-06
-4.99622e-06
-4.69271e-06
-9.72651e-07
2.16802e-06
-2.00436e-06
3.10545e-06
-2.93821e-06
3.69518e-06
-3.69611e-06
3.82569e-06
-4.22312e-06
3.49171e-06
-4.54684e-06
2.92968e-06
-4.70584e-06
2.31101e-06
-4.76177e-06
1.71577e-06
-4.75683e-06
1.20993e-06
-4.72282e-06
7.53831e-07
-4.65315e-06
3.46217e-07
-4.55868e-06
-3.51888e-08
-4.42818e-06
-4.26851e-07
-4.27495e-06
-8.5843e-07
-4.09841e-06
-1.40519e-06
-3.87147e-06
-2.17985e-06
-3.50633e-06
-3.31257e-06
-2.77506e-06
-4.87044e-06
-1.57509e-06
-6.19618e-06
-6.2678e-06
-9.2078e-07
3.08881e-06
-1.83295e-06
4.01762e-06
-2.58878e-06
4.45101e-06
-3.11556e-06
4.35247e-06
-3.41278e-06
3.78894e-06
-3.5543e-06
3.0712e-06
-3.6113e-06
2.36801e-06
-3.63268e-06
1.73715e-06
-3.61574e-06
1.19299e-06
-3.56317e-06
7.01261e-07
-3.47033e-06
2.53377e-07
-3.33379e-06
-1.7172e-07
-3.16864e-06
-5.92003e-07
-2.99284e-06
-1.03424e-06
-2.83374e-06
-1.56428e-06
-2.704e-06
-2.3096e-06
-2.54895e-06
-3.46763e-06
-2.15577e-06
-5.26362e-06
-1.29704e-06
-7.05491e-06
-7.56484e-06
-7.63289e-07
3.85209e-06
-1.50155e-06
4.75588e-06
-2.07024e-06
5.0197e-06
-2.43147e-06
4.7137e-06
-2.61851e-06
3.97597e-06
-2.71732e-06
3.17002e-06
-2.77862e-06
2.4293e-06
-2.82231e-06
1.78084e-06
-2.83659e-06
1.20727e-06
-2.81038e-06
6.75041e-07
-2.73118e-06
1.74184e-07
-2.59554e-06
-3.0736e-07
-2.41271e-06
-7.74832e-07
-2.20229e-06
-1.24466e-06
-2.00208e-06
-1.76449e-06
-1.85986e-06
-2.45182e-06
-1.79079e-06
-3.5367e-06
-1.64623e-06
-5.40818e-06
-1.02011e-06
-7.68103e-06
-8.58495e-06
-5.79735e-07
4.43183e-06
-1.12436e-06
5.3005e-06
-1.53616e-06
5.43151e-06
-1.79118e-06
4.96872e-06
-1.93976e-06
4.12455e-06
-2.04669e-06
3.27695e-06
-2.14117e-06
2.52377e-06
-2.22379e-06
1.86346e-06
-2.27666e-06
1.26015e-06
-2.28317e-06
6.81543e-07
-2.22669e-06
1.17708e-07
-2.10355e-06
-4.30503e-07
-1.92031e-06
-9.58073e-07
-1.69774e-06
-1.46723e-06
-1.47148e-06
-1.99074e-06
-1.29423e-06
-2.62907e-06
-1.22124e-06
-3.60969e-06
-1.1782e-06
-5.45122e-06
-8.20543e-07
-8.03869e-06
-9.4055e-06
-3.75227e-07
4.80706e-06
-7.47686e-07
5.67296e-06
-1.03497e-06
5.71879e-06
-1.22306e-06
5.15681e-06
-1.3601e-06
4.26159e-06
-1.48482e-06
3.40168e-06
-1.60925e-06
2.64819e-06
-1.72388e-06
1.9781e-06
-1.80975e-06
1.34602e-06
-1.84705e-06
7.18839e-07
-1.81494e-06
8.56044e-08
-1.71033e-06
-5.35119e-07
-1.53858e-06
-1.12982e-06
-1.32246e-06
-1.68335e-06
-1.09824e-06
-2.21496e-06
-9.13879e-07
-2.81344e-06
-8.42141e-07
-3.68142e-06
-8.27831e-07
-5.46553e-06
-6.36726e-07
-8.22979e-06
-1.00422e-05
-1.88243e-07
4.9953e-06
-3.99099e-07
5.88382e-06
-5.77694e-07
5.89739e-06
-7.13959e-07
5.29307e-06
-8.3964e-07
4.38727e-06
-9.71175e-07
3.53321e-06
-1.10876e-06
2.78578e-06
-1.24032e-06
2.10966e-06
-1.34857e-06
1.45426e-06
-1.41319e-06
7.83459e-07
-1.40992e-06
8.23383e-08
-1.33377e-06
-6.11269e-07
-1.18759e-06
-1.27599e-06
-9.9423e-07
-1.87671e-06
-7.91559e-07
-2.41763e-06
-6.18601e-07
-2.98639e-06
-5.52855e-07
-3.74717e-06
-5.78239e-07
-5.44015e-06
-5.17813e-07
-8.29022e-06
-1.056e-05
1.12273e-08
4.98407e-06
-7.63649e-08
5.97141e-06
-1.52387e-07
5.97341e-06
-2.34028e-07
5.37471e-06
-3.35345e-07
4.48859e-06
-4.55636e-07
3.6535e-06
-5.84897e-07
2.91504e-06
-7.127e-07
2.23746e-06
-8.2535e-07
1.56691e-06
-9.06918e-07
8.65027e-07
-9.3652e-07
1.11941e-07
-9.022e-07
-6.45589e-07
-8.0247e-07
-1.37572e-06
-6.54206e-07
-2.02498e-06
-4.97156e-07
-2.57468e-06
-3.647e-07
-3.11885e-06
-3.2682e-07
-3.78505e-06
-3.95694e-07
-5.37127e-06
-4.1474e-07
-8.27117e-06
-1.09748e-05
1.80263e-07
4.80381e-06
2.55075e-07
5.8966e-06
2.89215e-07
5.93927e-06
2.53386e-07
5.41054e-06
1.86062e-07
4.55591e-06
9.40342e-08
3.74553e-06
-7.78359e-09
3.01686e-06
-1.07477e-07
2.33716e-06
-2.00117e-07
1.65955e-06
-2.77474e-07
9.42384e-07
-3.33091e-07
1.67558e-07
-3.48446e-07
-6.30234e-07
-3.18252e-07
-1.40592e-06
-2.48011e-07
-2.09522e-06
-1.5979e-07
-2.6629e-06
-1.18048e-07
-3.16059e-06
-1.01234e-07
-3.80186e-06
-2.35226e-07
-5.23728e-06
-3.49024e-07
-8.15737e-06
-1.13238e-05
3.53386e-07
4.45042e-06
5.72108e-07
5.67788e-06
7.218e-07
5.78958e-06
7.54893e-07
5.37745e-06
7.32305e-07
4.5785e-06
6.8871e-07
3.78912e-06
6.37189e-07
3.06838e-06
5.82161e-07
2.39218e-06
5.24962e-07
1.71675e-06
4.64067e-07
1.00328e-06
3.95638e-07
2.35987e-07
3.32929e-07
-5.67525e-07
2.82758e-07
-1.35575e-06
2.49908e-07
-2.06237e-06
2.28539e-07
-2.64153e-06
1.71517e-07
-3.10357e-06
1.12292e-07
-3.74264e-06
-1.07664e-07
-5.01732e-06
-2.88743e-07
-7.97629e-06
-1.16125e-05
5.14314e-07
3.93611e-06
8.83897e-07
5.30829e-06
1.14403e-06
5.52944e-06
1.27783e-06
5.24365e-06
1.32058e-06
4.53574e-06
1.33385e-06
3.77586e-06
1.33583e-06
3.0664e-06
1.33084e-06
2.39717e-06
1.31383e-06
1.73376e-06
1.27491e-06
1.0422e-06
1.20196e-06
3.08937e-07
1.09757e-06
-4.63139e-07
9.70011e-07
-1.22819e-06
8.29435e-07
-1.92179e-06
6.80016e-07
-2.49211e-06
5.18025e-07
-2.94158e-06
3.2392e-07
-3.54853e-06
1.51908e-08
-4.70859e-06
-2.02045e-07
-7.75906e-06
-1.18146e-05
6.39164e-07
3.29695e-06
1.15511e-06
4.79235e-06
1.52077e-06
5.16378e-06
1.77252e-06
4.9919e-06
1.91058e-06
4.39769e-06
1.99938e-06
3.68705e-06
2.06618e-06
2.99961e-06
2.11541e-06
2.34794e-06
2.1394e-06
1.70978e-06
2.12417e-06
1.05743e-06
2.05259e-06
3.80517e-07
1.91617e-06
-3.26713e-07
1.72129e-06
-1.03331e-06
1.47681e-06
-1.67732e-06
1.20015e-06
-2.21545e-06
8.98844e-07
-2.64027e-06
5.67588e-07
-3.21728e-06
2.21511e-07
-4.36252e-06
-3.10011e-08
-7.50655e-06
-1.18456e-05
7.04884e-07
2.59206e-06
1.35622e-06
4.14101e-06
1.86427e-06
4.65573e-06
2.25886e-06
4.5973e-06
2.52658e-06
4.12997e-06
2.71281e-06
3.50083e-06
2.851e-06
2.86142e-06
2.95104e-06
2.24789e-06
3.00748e-06
1.65334e-06
3.00752e-06
1.05739e-06
2.93277e-06
4.55266e-07
2.76526e-06
-1.59199e-07
2.50803e-06
-7.76078e-07
2.16694e-06
-1.33623e-06
1.76372e-06
-1.81223e-06
1.30632e-06
-2.18287e-06
8.38757e-07
-2.74972e-06
4.37141e-07
-3.9609e-06
1.06046e-07
-7.17545e-06
-1.17395e-05
6.5026e-07
1.9418e-06
1.36956e-06
3.42171e-06
2.01384e-06
4.01146e-06
2.56517e-06
4.04597e-06
3.00103e-06
3.69411e-06
3.33124e-06
3.17062e-06
3.57905e-06
2.61361e-06
3.75719e-06
2.06975e-06
3.86301e-06
1.54752e-06
3.88707e-06
1.03333e-06
3.81423e-06
5.28115e-07
3.61987e-06
3.51592e-08
3.30589e-06
-4.62101e-07
2.87496e-06
-9.05301e-07
2.34755e-06
-1.28481e-06
1.73598e-06
-1.5713e-06
1.13417e-06
-2.14791e-06
6.55225e-07
-3.48196e-06
2.40802e-07
-6.76103e-06
-1.14987e-05
3.81568e-07
1.56023e-06
1.22033e-06
2.58295e-06
2.03063e-06
3.20115e-06
2.78383e-06
3.29277e-06
3.42643e-06
3.05152e-06
3.93184e-06
2.66521e-06
4.30979e-06
2.23566e-06
4.5752e-06
1.80434e-06
4.73024e-06
1.39248e-06
4.76996e-06
9.93612e-07
4.68574e-06
6.12333e-07
4.46719e-06
2.53706e-07
4.08726e-06
-8.21671e-08
3.57663e-06
-3.94677e-07
2.94168e-06
-6.49856e-07
2.23677e-06
-8.66393e-07
1.54407e-06
-1.45521e-06
9.84697e-07
-2.92259e-06
4.18579e-07
-6.19491e-06
-1.10802e-05
-6.9806e-08
1.63004e-06
5.96204e-07
1.91694e-06
1.46134e-06
2.33601e-06
2.39996e-06
2.35416e-06
3.25922e-06
2.19226e-06
3.98153e-06
1.94289e-06
4.54515e-06
1.67204e-06
4.95433e-06
1.39516e-06
5.20896e-06
1.13785e-06
5.3166e-06
8.85964e-07
5.26852e-06
6.60416e-07
5.08113e-06
4.41098e-07
4.73775e-06
2.6121e-07
4.27933e-06
6.37467e-08
3.70102e-06
-7.1546e-08
3.13417e-06
-2.99548e-07
2.53115e-06
-8.52185e-07
1.91894e-06
-2.31037e-06
9.27289e-07
-5.20326e-06
-1.01529e-05
-6.6733e-07
2.29737e-06
-1.12005e-07
1.36161e-06
1.04761e-06
1.1764e-06
2.26807e-06
1.13369e-06
3.3622e-06
1.09812e-06
4.28681e-06
1.01828e-06
5.04232e-06
9.16531e-07
5.6402e-06
7.97283e-07
6.08812e-06
6.89926e-07
6.40062e-06
5.73462e-07
6.58024e-06
4.808e-07
6.64861e-06
3.72731e-07
6.61007e-06
2.9975e-07
6.47915e-06
1.94661e-07
6.28749e-06
1.20123e-07
6.06045e-06
-7.25164e-08
5.64357e-06
-4.35302e-07
4.76377e-06
-1.43057e-06
2.68107e-06
-3.12056e-06
-7.4718e-06
2.29737e-06
3.65898e-06
4.83538e-06
5.96908e-06
7.0672e-06
8.08549e-06
9.00202e-06
9.7993e-06
1.04892e-05
1.10627e-05
1.15435e-05
1.19162e-05
1.2216e-05
1.24106e-05
1.25308e-05
1.24582e-05
1.20229e-05
1.05924e-05
7.4718e-06
)
;

boundaryField
{
    movingWall
    {
        type            calculated;
        value           uniform 0;
    }
    fixedWalls
    {
        type            calculated;
        value           uniform 0;
    }
    frontAndBack
    {
        type            empty;
        value           nonuniform 0();
    }
}


// ************************************************************************* //
