/*--------------------------------*- C++ -*----------------------------------*\
| =========                 |                                                 |
| \\      /  F ield         | OpenFOAM: The Open Source CFD Toolbox           |
|  \\    /   O peration     | Version:  4.1                                   |
|   \\  /    A nd           | Web:      www.OpenFOAM.org                      |
|    \\/     M anipulation  |                                                 |
\*---------------------------------------------------------------------------*/
FoamFile
{
    version     2.0;
    format      ascii;
    class       volVectorField;
    location    "4";
    object      U;
}
// * * * * * * * * * * * * * * * * * * * * * * * * * * * * * * * * * * * * * //

dimensions      [0 1 -1 0 0 0 0];

internalField   nonuniform List<vector> 
400
(
(0.00141612 -0.00222209 0)
(-0.00104198 0.000473479 0)
(-0.00874143 0.00406419 0)
(-0.0259527 0.0096828 0)
(-0.049562 0.012234 0)
(-0.0730917 0.0116867 0)
(-0.0939962 0.0103088 0)
(-0.111317 0.00863912 0)
(-0.124792 0.00703581 0)
(-0.134998 0.00525903 0)
(-0.142187 0.00359298 0)
(-0.145992 0.00199672 0)
(-0.147274 0.000372496 0)
(-0.144461 -0.0026703 0)
(-0.136447 -0.00503687 0)
(-0.122526 -0.00916905 0)
(-0.101483 -0.0131291 0)
(-0.0733949 -0.0167896 0)
(-0.0411698 -0.0164705 0)
(-0.0135055 -0.00898507 0)
(-0.00279324 0.00192878 0)
(-0.0134612 0.0115189 0)
(-0.0323234 0.023613 0)
(-0.0553244 0.0313723 0)
(-0.0790774 0.0330941 0)
(-0.0989846 0.0310169 0)
(-0.115098 0.0270792 0)
(-0.126952 0.0225913 0)
(-0.13732 0.0166134 0)
(-0.143952 0.0119792 0)
(-0.148669 0.0069637 0)
(-0.150252 0.00251122 0)
(-0.149546 -0.00260857 0)
(-0.145668 -0.00841334 0)
(-0.13823 -0.0161625 0)
(-0.125739 -0.0260115 0)
(-0.10729 -0.0377823 0)
(-0.0817932 -0.0492291 0)
(-0.0507777 -0.0535085 0)
(-0.0191482 -0.039934 0)
(-0.00712921 0.0153171 0)
(-0.024776 0.0317916 0)
(-0.0467911 0.0450489 0)
(-0.0688484 0.0518049 0)
(-0.0878353 0.051243 0)
(-0.101361 0.0459047 0)
(-0.11142 0.0381223 0)
(-0.119218 0.0294804 0)
(-0.123706 0.0224047 0)
(-0.125045 0.0150834 0)
(-0.125553 0.00835669 0)
(-0.124482 0.00158713 0)
(-0.123193 -0.00548486 0)
(-0.120159 -0.0136629 0)
(-0.115386 -0.0240729 0)
(-0.107296 -0.0382508 0)
(-0.09468 -0.0565946 0)
(-0.0754415 -0.0769284 0)
(-0.0496346 -0.0897164 0)
(-0.0202677 -0.0799821 0)
(-0.00956859 0.0336648 0)
(-0.0293143 0.0520607 0)
(-0.0503573 0.0645564 0)
(-0.0689696 0.0687717 0)
(-0.081641 0.0644881 0)
(-0.0892335 0.0553034 0)
(-0.093849 0.0448229 0)
(-0.0952983 0.0343047 0)
(-0.0950295 0.024624 0)
(-0.0949893 0.0157489 0)
(-0.0937953 0.00800078 0)
(-0.0922303 0.000606032 0)
(-0.0900938 -0.0068231 0)
(-0.0875772 -0.0154163 0)
(-0.0847301 -0.0265668 0)
(-0.0808799 -0.0424566 0)
(-0.074284 -0.0651322 0)
(-0.0618628 -0.0935548 0)
(-0.042698 -0.115603 0)
(-0.0180372 -0.113627 0)
(-0.00936932 0.0520833 0)
(-0.0278793 0.0706953 0)
(-0.0463122 0.0811655 0)
(-0.0599359 0.0816764 0)
(-0.067222 0.0729564 0)
(-0.070574 0.0603982 0)
(-0.0721472 0.0473188 0)
(-0.0724907 0.0350481 0)
(-0.0725353 0.0243955 0)
(-0.0719267 0.014849 0)
(-0.070407 0.00625641 0)
(-0.0680975 -0.00178624 0)
(-0.0650471 -0.00963426 0)
(-0.0617555 -0.0181345 0)
(-0.0586988 -0.0287606 0)
(-0.0562574 -0.0442105 0)
(-0.0535224 -0.0682896 0)
(-0.0464641 -0.103847 0)
(-0.0341644 -0.134883 0)
(-0.0153246 -0.141244 0)
(-0.00752732 0.0686968 0)
(-0.0236026 0.0874476 0)
(-0.0378921 0.0945464 0)
(-0.0476488 0.0907119 0)
(-0.0517017 0.0778897 0)
(-0.0536841 0.0627291 0)
(-0.0550287 0.0481849 0)
(-0.0560073 0.0352778 0)
(-0.0567411 0.0240375 0)
(-0.0566422 0.013773 0)
(-0.0555841 0.00426648 0)
(-0.0533715 -0.0047572 0)
(-0.050114 -0.0135336 0)
(-0.0461675 -0.0224916 0)
(-0.0421565 -0.0327164 0)
(-0.0389365 -0.046705 0)
(-0.0373157 -0.0691321 0)
(-0.0336087 -0.106811 0)
(-0.0280763 -0.149189 0)
(-0.00966054 -0.163231 0)
(-0.0056554 0.082601 0)
(-0.0181628 0.100322 0)
(-0.0283659 0.104221 0)
(-0.0354138 0.0968079 0)
(-0.037879 0.0810857 0)
(-0.0399037 0.0645186 0)
(-0.0418489 0.0494764 0)
(-0.0437117 0.0363292 0)
(-0.0452165 0.0245356 0)
(-0.0458395 0.0134362 0)
(-0.0453302 0.00282075 0)
(-0.0434529 -0.00743078 0)
(-0.0402872 -0.01734 0)
(-0.0361619 -0.0270821 0)
(-0.0316895 -0.0374128 0)
(-0.0275973 -0.050463 0)
(-0.0258341 -0.0708933 0)
(-0.0224013 -0.107997 0)
(-0.0224034 -0.158041 0)
(-0.00713197 -0.180813 0)
(-0.00323028 0.0924391 0)
(-0.0122197 0.110127 0)
(-0.0191192 0.111898 0)
(-0.0241716 0.101451 0)
(-0.0259843 0.0838917 0)
(-0.0283939 0.0666921 0)
(-0.0309242 0.0515576 0)
(-0.0334505 0.038215 0)
(-0.0355934 0.0258324 0)
(-0.0368639 0.0137762 0)
(-0.0368793 0.00186391 0)
(-0.0354182 -0.00981931 0)
(-0.0325263 -0.0210099 0)
(-0.0285543 -0.0316145 0)
(-0.0241467 -0.0421242 0)
(-0.0196937 -0.0543812 0)
(-0.0182754 -0.0726142 0)
(-0.0145281 -0.108985 0)
(-0.0186838 -0.162959 0)
(-0.00366176 -0.194881 0)
(-0.00145095 0.098812 0)
(-0.00640214 0.115747 0)
(-0.0106427 0.116121 0)
(-0.0139507 0.104377 0)
(-0.0154654 0.0863231 0)
(-0.0180348 0.0691662 0)
(-0.0208079 0.0541434 0)
(-0.0236356 0.0406479 0)
(-0.0261682 0.027721 0)
(-0.02794 0.0147046 0)
(-0.0284834 0.00143581 0)
(-0.0275862 -0.0118213 0)
(-0.0252138 -0.0244143 0)
(-0.0217099 -0.0359296 0)
(-0.0178178 -0.0466253 0)
(-0.0132988 -0.0582556 0)
(-0.0127676 -0.0742353 0)
(-0.00820936 -0.109115 0)
(-0.016206 -0.165244 0)
(-0.00173608 -0.206354 0)
(0.00140748 0.100576 0)
(-0.000951586 0.119601 0)
(-0.0026029 0.119651 0)
(-0.00433695 0.107054 0)
(-0.00549856 0.0888515 0)
(-0.00784962 0.0718308 0)
(-0.0104298 0.0569125 0)
(-0.013118 0.0433141 0)
(-0.0156467 0.0299673 0)
(-0.0176368 0.0161446 0)
(-0.0186378 0.00163996 0)
(-0.0184876 -0.0131507 0)
(-0.0170009 -0.0271751 0)
(-0.0144013 -0.0396288 0)
(-0.0116077 -0.0504702 0)
(-0.00736687 -0.0614813 0)
(-0.00859024 -0.0756743 0)
(-0.00306148 -0.108371 0)
(-0.0146025 -0.165764 0)
(0.000660171 -0.215757 0)
(0.00322395 0.0988565 0)
(0.00412763 0.119265 0)
(0.00529068 0.119311 0)
(0.0051389 0.107605 0)
(0.00456025 0.0903447 0)
(0.00283949 0.0738972 0)
(0.000861798 0.0592448 0)
(-0.00122415 0.0456683 0)
(-0.00325787 0.0321367 0)
(-0.00501059 0.0178547 0)
(-0.00623722 0.00254131 0)
(-0.0068445 -0.0133355 0)
(-0.00661685 -0.0285625 0)
(-0.00547784 -0.0419782 0)
(-0.00447653 -0.0530714 0)
(-0.00106457 -0.0633312 0)
(-0.00475666 -0.0764022 0)
(0.00192118 -0.106186 0)
(-0.0135008 -0.164552 0)
(0.00245163 -0.223346 0)
(0.00512801 0.0942824 0)
(0.00908486 0.117598 0)
(0.0128233 0.118823 0)
(0.0145187 0.10894 0)
(0.0149293 0.091718 0)
(0.0142039 0.0756158 0)
(0.0131891 0.0610608 0)
(0.0120596 0.0474514 0)
(0.0108879 0.0338584 0)
(0.00973859 0.0194579 0)
(0.00859324 0.00392556 0)
(0.00745513 -0.0123122 0)
(0.00635565 -0.0281448 0)
(0.00566746 -0.0422371 0)
(0.0043267 -0.0537117 0)
(0.00601103 -0.0632717 0)
(-0.000735507 -0.0759732 0)
(0.00691024 -0.102568 0)
(-0.0132484 -0.161869 0)
(0.00506714 -0.229205 0)
(0.00696519 0.0853625 0)
(0.0136971 0.110721 0)
(0.02056 0.113278 0)
(0.0238261 0.106593 0)
(0.0260258 0.0912668 0)
(0.0265192 0.0756724 0)
(0.0265875 0.0614357 0)
(0.0265143 0.0480479 0)
(0.0262853 0.0346898 0)
(0.0258253 0.0206176 0)
(0.0248922 0.00550499 0)
(0.0234386 -0.0103718 0)
(0.0211937 -0.0260606 0)
(0.0187375 -0.0402234 0)
(0.0148328 -0.0518214 0)
(0.0140501 -0.0610023 0)
(0.00409728 -0.073204 0)
(0.0119921 -0.0971301 0)
(-0.0128412 -0.157561 0)
(0.0082473 -0.233475 0)
(0.0085244 0.0741633 0)
(0.0177296 0.103754 0)
(0.02718 0.10916 0)
(0.0325082 0.103964 0)
(0.0367302 0.0907577 0)
(0.0390098 0.0756196 0)
(0.0405095 0.0613536 0)
(0.0416662 0.0479694 0)
(0.0424305 0.0348438 0)
(0.0426833 0.0213155 0)
(0.0420053 0.00707372 0)
(0.0403594 -0.00780783 0)
(0.0371144 -0.0225941 0)
(0.0331376 -0.0360838 0)
(0.0266121 -0.0472864 0)
(0.023161 -0.056123 0)
(0.00981667 -0.06784 0)
(0.0170316 -0.0907718 0)
(-0.0120365 -0.151851 0)
(0.0127798 -0.236809 0)
(0.00897571 0.0589891 0)
(0.0205534 0.0891695 0)
(0.032624 0.098555 0)
(0.0409874 0.096385 0)
(0.0476743 0.0857191 0)
(0.052201 0.072292 0)
(0.0554433 0.0589837 0)
(0.05788 0.0463131 0)
(0.0595103 0.0339707 0)
(0.0603088 0.0214583 0)
(0.0597386 0.00856901 0)
(0.0578711 -0.00472426 0)
(0.0536239 -0.0178996 0)
(0.0483045 -0.0299805 0)
(0.0392365 -0.04021 0)
(0.0331371 -0.0483168 0)
(0.0159431 -0.0597577 0)
(0.0225267 -0.0835019 0)
(-0.010657 -0.147899 0)
(0.0179644 -0.239952 0)
(0.00766644 0.0457652 0)
(0.0202449 0.078263 0)
(0.0344087 0.0895688 0)
(0.0458028 0.0893059 0)
(0.0553833 0.0811798 0)
(0.0629653 0.0691902 0)
(0.0688205 0.0566298 0)
(0.0732439 0.0445505 0)
(0.0761865 0.0330019 0)
(0.0778053 0.0216072 0)
(0.0774474 0.0102784 0)
(0.0754788 -0.0011027 0)
(0.070256 -0.012111 0)
(0.0637652 -0.0222067 0)
(0.0522491 -0.0309297 0)
(0.0435317 -0.0377775 0)
(0.0224875 -0.0494821 0)
(0.0286324 -0.0754588 0)
(-0.0096454 -0.14312 0)
(0.0242458 -0.242684 0)
(0.000429157 0.0293839 0)
(0.0165678 0.0560306 0)
(0.0334223 0.0703662 0)
(0.048425 0.0731306 0)
(0.0618016 0.0680792 0)
(0.0730771 0.059462 0)
(0.082034 0.0496796 0)
(0.0887343 0.0397655 0)
(0.0930668 0.0301674 0)
(0.0954737 0.0207373 0)
(0.0950447 0.0115903 0)
(0.0929253 0.00266558 0)
(0.0865452 -0.0058537 0)
(0.0790226 -0.0133992 0)
(0.065134 -0.0199511 0)
(0.0543659 -0.0251571 0)
(0.0311889 -0.0375873 0)
(0.0370407 -0.0668897 0)
(-0.00752286 -0.137094 0)
(0.032436 -0.238582 0)
(-0.00499384 0.0396937 0)
(0.00309428 0.0536461 0)
(0.021494 0.0619586 0)
(0.0389068 0.0622491 0)
(0.0560719 0.0574987 0)
(0.0718456 0.0504138 0)
(0.0848199 0.0427536 0)
(0.0950111 0.0351829 0)
(0.101563 0.0280198 0)
(0.105932 0.0211542 0)
(0.106245 0.0146223 0)
(0.105182 0.00867837 0)
(0.0989293 0.00332802 0)
(0.0924763 -0.00094142 0)
(0.0792453 -0.00466295 0)
(0.0696592 -0.00922747 0)
(0.0506244 -0.0228856 0)
(0.0558288 -0.055292 0)
(0.00541533 -0.119611 0)
(0.0485836 -0.212537 0)
(-0.00815731 0.0113501 0)
(-0.0143481 0.00941952 0)
(0.010407 0.0209941 0)
(0.0329799 0.025455 0)
(0.0558416 0.0263391 0)
(0.0760984 0.024816 0)
(0.0927811 0.0222178 0)
(0.10697 0.0189382 0)
(0.117116 0.0158283 0)
(0.125565 0.0125657 0)
(0.130024 0.00998688 0)
(0.13331 0.00710797 0)
(0.132933 0.00537439 0)
(0.131626 0.00248654 0)
(0.126681 0.000767038 0)
(0.123262 -0.00450217 0)
(0.11223 -0.0132677 0)
(0.110305 -0.0384417 0)
(0.056698 -0.0828853 0)
(0.0864765 -0.15704 0)
(0.0482385 0.0994388 0)
(0.0535894 0.0594866 0)
(0.0844939 0.0363023 0)
(0.109048 0.0264705 0)
(0.130436 0.0217818 0)
(0.151448 0.0187676 0)
(0.170387 0.0166064 0)
(0.188062 0.0146532 0)
(0.202805 0.0132242 0)
(0.215931 0.0117031 0)
(0.226322 0.0106583 0)
(0.23507 0.00935174 0)
(0.241629 0.00839299 0)
(0.246226 0.00707136 0)
(0.2493 0.00567649 0)
(0.248959 0.00304817 0)
(0.243858 0.000369422 0)
(0.231101 -0.00780011 0)
(0.180147 -0.0207101 0)
(0.168819 -0.117118 0)
)
;

boundaryField
{
    movingWall
    {
        type            fixedValue;
        value           uniform (1 0 0);
    }
    fixedWalls
    {
        type            noSlip;
    }
    frontAndBack
    {
        type            empty;
    }
}


// ************************************************************************* //
