/*--------------------------------*- C++ -*----------------------------------*\
| =========                 |                                                 |
| \\      /  F ield         | OpenFOAM: The Open Source CFD Toolbox           |
|  \\    /   O peration     | Version:  4.1                                   |
|   \\  /    A nd           | Web:      www.OpenFOAM.org                      |
|    \\/     M anipulation  |                                                 |
\*---------------------------------------------------------------------------*/
FoamFile
{
    version     2.0;
    format      ascii;
    class       volScalarField;
    location    "2.5";
    object      epsilon;
}
// * * * * * * * * * * * * * * * * * * * * * * * * * * * * * * * * * * * * * //

dimensions      [0 2 -3 0 0 0 0];

internalField   nonuniform List<scalar> 
400
(
5.90873e-05
0.000125121
0.000254915
0.000483123
0.00103794
0.00249032
0.00511145
0.00749448
0.00858533
0.00896367
0.00901588
0.00857388
0.00795828
0.00720854
0.006549
0.00594458
0.00527972
0.00478276
0.00378471
0.00305819
0.000109061
0.000139353
0.00026671
0.000546753
0.00122947
0.00252182
0.00354821
0.00376895
0.00327407
0.00261962
0.00218791
0.00198023
0.00192835
0.00214781
0.00241943
0.00290132
0.0036432
0.00476674
0.00633709
0.00741253
0.000238646
0.000200885
0.000358801
0.000717912
0.00142232
0.00200769
0.00209458
0.00179695
0.00137807
0.00120655
0.00115684
0.00117827
0.00131778
0.00148953
0.00176007
0.00222782
0.00305392
0.00455229
0.0074208
0.0118846
0.000420361
0.000281325
0.000453008
0.000809908
0.0013066
0.00146746
0.00138941
0.00106436
0.000886502
0.000829291
0.000818682
0.000854264
0.000943934
0.00106623
0.00126786
0.00164794
0.0024094
0.00398252
0.00759751
0.0150379
0.00063843
0.000345588
0.000491689
0.00080126
0.00110496
0.00114736
0.0010099
0.00076389
0.00065185
0.000601608
0.00058181
0.000580391
0.000628304
0.000736361
0.000924245
0.00127798
0.00201202
0.00359656
0.00752598
0.0175624
0.000873837
0.000387655
0.000485334
0.00075295
0.000931981
0.000939577
0.000811429
0.000615881
0.000513473
0.000456387
0.000416999
0.00040349
0.000420622
0.000510322
0.000682411
0.00102037
0.00175451
0.00340038
0.00749467
0.0196077
0.00110334
0.000413333
0.000460292
0.000656541
0.000795056
0.000799288
0.00069919
0.00054868
0.000446609
0.000384988
0.000335945
0.000317373
0.000328213
0.000404831
0.000563394
0.000872799
0.00158036
0.00330312
0.00755523
0.0214311
0.00130337
0.000425466
0.000418648
0.000556339
0.000682744
0.000699969
0.000630115
0.000514929
0.000421139
0.00036076
0.00031442
0.00028956
0.000301956
0.000371388
0.00052057
0.000808128
0.00148783
0.00327824
0.00780556
0.0231542
0.00146503
0.000430447
0.000379725
0.000471844
0.000581598
0.000620256
0.000582199
0.000501598
0.000422061
0.000363901
0.000321376
0.000300485
0.000316591
0.000380503
0.000517278
0.000790252
0.00143604
0.00328755
0.00825803
0.0249264
0.00156626
0.000444278
0.000349314
0.000405451
0.000495986
0.000551313
0.000540387
0.000499008
0.000431936
0.000379352
0.000343359
0.000338247
0.000362629
0.000432678
0.000556839
0.000796756
0.00140666
0.00330967
0.00885631
0.0268565
0.00160566
0.00046668
0.000329692
0.00035652
0.00042533
0.000487721
0.000507829
0.000492413
0.000456138
0.000415434
0.000390568
0.000395683
0.000422712
0.000480693
0.000579244
0.000797659
0.00137227
0.00331478
0.00961597
0.0290765
0.00158818
0.000485338
0.000317973
0.000324347
0.000369953
0.00042851
0.000467277
0.00047697
0.000465467
0.000447174
0.000433773
0.00043831
0.000456791
0.000499036
0.000583443
0.000777681
0.00130199
0.00325422
0.0104051
0.0317279
0.00153445
0.000487754
0.000309929
0.000302366
0.000330885
0.00037933
0.000420904
0.000445261
0.000453869
0.000448018
0.000441296
0.000444219
0.000457927
0.000491566
0.000562234
0.000733552
0.00120504
0.00314135
0.011195
0.0350184
0.00144644
0.000479249
0.000303089
0.000286751
0.00030516
0.000342839
0.000379731
0.000406724
0.00042182
0.000426683
0.000425698
0.000427268
0.000436601
0.000463271
0.000523089
0.000675182
0.00109378
0.00300837
0.0119602
0.0392286
0.00134875
0.000455494
0.000292809
0.000276819
0.000291347
0.000321378
0.000351857
0.000375941
0.000390678
0.000396843
0.000398059
0.000400588
0.000409813
0.000434728
0.000490646
0.000631447
0.0010111
0.00296116
0.0130725
0.0447791
0.00127745
0.000413385
0.000288481
0.00028023
0.000296263
0.000325486
0.000354593
0.00037806
0.000393314
0.000400952
0.000404027
0.00040811
0.000418597
0.00044331
0.000493692
0.00062299
0.000984596
0.00314434
0.0153068
0.0523091
0.00123402
0.000394499
0.000309227
0.000323237
0.000356035
0.000396117
0.00043402
0.00046633
0.000491271
0.000510198
0.000524918
0.000542428
0.000565398
0.000607552
0.000668145
0.00079997
0.00123239
0.00401358
0.019349
0.063327
0.00142253
0.000593745
0.000675289
0.000815349
0.000954301
0.00108395
0.00119957
0.00130617
0.00139768
0.00148967
0.00156711
0.00167012
0.00176081
0.00191135
0.00205898
0.00230435
0.00327536
0.00844743
0.0296832
0.0808309
0.00252083
0.00457069
0.00724126
0.00907259
0.0104347
0.0115075
0.0123533
0.0130945
0.0136807
0.0142929
0.0147562
0.0154242
0.0158775
0.0166776
0.0173231
0.0184044
0.0223961
0.0358475
0.0697476
0.115696
0.0403369
0.0828397
0.122683
0.146945
0.161453
0.170097
0.175126
0.177765
0.178911
0.178859
0.178414
0.177806
0.176499
0.175836
0.175239
0.176089
0.178306
0.181716
0.193779
0.16344
)
;

boundaryField
{
    movingWall
    {
        Cmu             0.09;
        kappa           0.41;
        E               9.8;
        type            epsilonWallFunction;
        value           nonuniform List<scalar> 
20
(
0.0403369
0.0828397
0.122683
0.146945
0.161453
0.170097
0.175126
0.177765
0.178911
0.178859
0.178414
0.177806
0.176499
0.175836
0.175239
0.176089
0.178306
0.181716
0.193779
0.16344
)
;
    }
    fixedWalls
    {
        Cmu             0.09;
        kappa           0.41;
        E               9.8;
        type            epsilonWallFunction;
        value           nonuniform List<scalar> 
60
(
5.90873e-05
0.000109061
0.000238646
0.000420361
0.00063843
0.000873837
0.00110334
0.00130337
0.00146503
0.00156626
0.00160566
0.00158818
0.00153445
0.00144644
0.00134875
0.00127745
0.00123402
0.00142253
0.00252083
0.0403369
0.00305819
0.00741253
0.0118846
0.0150379
0.0175624
0.0196077
0.0214311
0.0231542
0.0249264
0.0268565
0.0290765
0.0317279
0.0350184
0.0392286
0.0447791
0.0523091
0.063327
0.0808309
0.115696
0.16344
5.90873e-05
0.000125121
0.000254915
0.000483123
0.00103794
0.00249032
0.00511145
0.00749448
0.00858533
0.00896367
0.00901588
0.00857388
0.00795828
0.00720854
0.006549
0.00594458
0.00527972
0.00478276
0.00378471
0.00305819
)
;
    }
    frontAndBack
    {
        type            empty;
    }
}


// ************************************************************************* //
