/*--------------------------------*- C++ -*----------------------------------*\
| =========                 |                                                 |
| \\      /  F ield         | OpenFOAM: The Open Source CFD Toolbox           |
|  \\    /   O peration     | Version:  4.1                                   |
|   \\  /    A nd           | Web:      www.OpenFOAM.org                      |
|    \\/     M anipulation  |                                                 |
\*---------------------------------------------------------------------------*/
FoamFile
{
    version     2.0;
    format      ascii;
    class       volScalarField;
    location    "2.5";
    object      k;
}
// * * * * * * * * * * * * * * * * * * * * * * * * * * * * * * * * * * * * * //

dimensions      [0 2 -2 0 0 0 0];

internalField   nonuniform List<scalar> 
400
(
5.13146e-05
8.46318e-05
0.000136161
0.000209233
0.000350468
0.000629821
0.00101414
0.00130191
0.00142262
0.00146305
0.00146834
0.00141919
0.00135056
0.00126403
0.00118606
0.00111174
0.00102727
0.000961763
0.000822787
0.000713913
7.72445e-05
0.000121452
0.000177351
0.000266536
0.000445809
0.000717664
0.000864074
0.000889182
0.000812332
0.000753909
0.000725679
0.000716909
0.000738933
0.000792395
0.000842437
0.000930999
0.00104124
0.00116216
0.00126658
0.00128791
0.000130332
0.000196655
0.000260943
0.000361659
0.000538296
0.000653199
0.000670213
0.000625768
0.000603206
0.000598698
0.000626476
0.00066265
0.000694974
0.000737519
0.000775918
0.000846757
0.000956619
0.00113537
0.00142051
0.00176434
0.000190245
0.000263885
0.000328335
0.00041622
0.000539669
0.000580312
0.000567181
0.00054794
0.000546264
0.000568516
0.000604712
0.000638189
0.000674936
0.000714404
0.000751344
0.0008127
0.000923719
0.00110982
0.00145011
0.00206418
0.000251491
0.000316824
0.000376103
0.000439979
0.000518263
0.000526863
0.000509318
0.000503927
0.000506909
0.000524387
0.000541584
0.000558202
0.000596012
0.000649963
0.000712598
0.00079155
0.000915474
0.00110753
0.00146305
0.00228929
0.00031018
0.000353756
0.000406081
0.000440016
0.000486785
0.000490786
0.00047559
0.000467775
0.000464338
0.000461769
0.000455876
0.000455691
0.000485415
0.000557351
0.00065545
0.000770848
0.000925037
0.00115086
0.00150263
0.0024639
0.000362562
0.000375333
0.000422304
0.000438754
0.000457245
0.000458678
0.000446753
0.000438484
0.000428555
0.000411639
0.000388967
0.000380017
0.000403642
0.000489713
0.000618409
0.000761088
0.000936194
0.00118509
0.00155664
0.0026145
0.000405319
0.000383908
0.00043437
0.000444343
0.000446569
0.000438514
0.000419762
0.000405122
0.000391797
0.000373567
0.000351575
0.000342713
0.000372588
0.00046461
0.000607929
0.000768266
0.000960732
0.00122895
0.00162623
0.00275295
0.000438359
0.000383147
0.000437377
0.000457996
0.000450653
0.000439139
0.000417941
0.000396405
0.000377446
0.000359669
0.000343764
0.000343495
0.000376808
0.000479542
0.000639293
0.000804563
0.000986499
0.00125141
0.00170952
0.00289177
0.000458423
0.000380355
0.000435555
0.000470218
0.000471151
0.000453296
0.000429313
0.00040527
0.000384716
0.000367904
0.000360753
0.00037469
0.000428805
0.000548379
0.000697777
0.000848155
0.00100148
0.00126085
0.00179804
0.00303925
0.000466047
0.00037531
0.000429724
0.000475336
0.000499133
0.000493441
0.00047279
0.000443598
0.000420649
0.000407858
0.000415814
0.000447281
0.000518411
0.000632229
0.000755652
0.00087646
0.00100514
0.00125711
0.0018914
0.00320453
0.000462607
0.000367727
0.000420135
0.000475362
0.000515987
0.000535191
0.00053509
0.000525994
0.000511068
0.000506563
0.000518673
0.000549764
0.000609358
0.000694966
0.000785162
0.000885295
0.00098153
0.00120606
0.00197758
0.00339651
0.000451979
0.000358125
0.000409684
0.000472785
0.000523635
0.000560077
0.000581001
0.000589668
0.00059065
0.000593543
0.000603028
0.000624943
0.000665341
0.000723209
0.000791674
0.000871112
0.000933483
0.00113609
0.00205526
0.00362743
0.000434321
0.00034666
0.000399623
0.000467985
0.000526771
0.000573462
0.000607102
0.000627904
0.000638323
0.000643401
0.000649344
0.000661234
0.000684458
0.000723245
0.000770182
0.000829751
0.00086087
0.00103658
0.00212069
0.0039126
0.000414312
0.000333569
0.000390989
0.00046509
0.000528885
0.000580682
0.000619632
0.00064499
0.000657895
0.00066153
0.000661966
0.000664408
0.000674397
0.00069592
0.000724299
0.000766592
0.000770817
0.000944753
0.00220354
0.0042734
0.000399318
0.000325427
0.000390735
0.000467031
0.000531531
0.000582414
0.000620286
0.00064477
0.000656581
0.000657686
0.000654658
0.000649593
0.000648455
0.000653839
0.000664995
0.000686399
0.000670076
0.000901985
0.00235513
0.00473987
0.000389886
0.00032148
0.000392907
0.000467727
0.000528968
0.000576763
0.000611435
0.000633189
0.000642982
0.000641673
0.00063591
0.000625858
0.000617312
0.000613478
0.000611629
0.000616985
0.00061172
0.000899062
0.00263373
0.00538391
0.000428537
0.000346938
0.000425851
0.000494966
0.00055323
0.000599497
0.000634385
0.000659123
0.000673819
0.000680592
0.000681616
0.000682134
0.000682562
0.00068765
0.000696204
0.00070672
0.000776452
0.00130329
0.00335554
0.006335
0.000627505
0.000732314
0.00100335
0.00117996
0.0013152
0.00142553
0.00151531
0.00159684
0.0016626
0.00173321
0.00178704
0.00186378
0.00191953
0.00201227
0.00209259
0.0022135
0.00253594
0.0034789
0.00583769
0.00804573
0.00398568
0.00643966
0.00836624
0.0094355
0.0100464
0.0104016
0.0106054
0.0107115
0.0107575
0.0107555
0.0107377
0.0107135
0.0106611
0.0106345
0.0106107
0.0106451
0.0107343
0.0108708
0.0113469
0.0101294
)
;

boundaryField
{
    movingWall
    {
        type            kqRWallFunction;
        value           nonuniform List<scalar> 
20
(
0.00398568
0.00643966
0.00836624
0.0094355
0.0100464
0.0104016
0.0106054
0.0107115
0.0107575
0.0107555
0.0107377
0.0107135
0.0106611
0.0106345
0.0106107
0.0106451
0.0107343
0.0108708
0.0113469
0.0101294
)
;
    }
    fixedWalls
    {
        type            kqRWallFunction;
        value           nonuniform List<scalar> 
60
(
5.13146e-05
7.72445e-05
0.000130332
0.000190245
0.000251491
0.00031018
0.000362562
0.000405319
0.000438359
0.000458423
0.000466047
0.000462607
0.000451979
0.000434321
0.000414312
0.000399318
0.000389886
0.000428537
0.000627505
0.00398568
0.000713913
0.00128791
0.00176434
0.00206418
0.00228929
0.0024639
0.0026145
0.00275295
0.00289177
0.00303925
0.00320453
0.00339651
0.00362743
0.0039126
0.0042734
0.00473987
0.00538391
0.006335
0.00804573
0.0101294
5.13146e-05
8.46318e-05
0.000136161
0.000209233
0.000350468
0.000629821
0.00101414
0.00130191
0.00142262
0.00146305
0.00146834
0.00141919
0.00135056
0.00126403
0.00118606
0.00111174
0.00102727
0.000961763
0.000822787
0.000713913
)
;
    }
    frontAndBack
    {
        type            empty;
    }
}


// ************************************************************************* //
