/*--------------------------------*- C++ -*----------------------------------*\
| =========                 |                                                 |
| \\      /  F ield         | OpenFOAM: The Open Source CFD Toolbox           |
|  \\    /   O peration     | Version:  4.1                                   |
|   \\  /    A nd           | Web:      www.OpenFOAM.org                      |
|    \\/     M anipulation  |                                                 |
\*---------------------------------------------------------------------------*/
FoamFile
{
    version     2.0;
    format      ascii;
    class       volScalarField;
    location    "2.5";
    object      nut;
}
// * * * * * * * * * * * * * * * * * * * * * * * * * * * * * * * * * * * * * //

dimensions      [0 2 -1 0 0 0 0];

internalField   nonuniform List<scalar> 
400
(
4.0108e-06
5.15204e-06
6.54569e-06
8.15539e-06
1.06504e-05
1.43358e-05
1.81088e-05
2.03548e-05
2.12161e-05
2.1492e-05
2.15223e-05
2.1142e-05
2.06277e-05
1.99486e-05
1.93323e-05
1.87124e-05
1.79889e-05
1.74061e-05
1.60985e-05
1.49992e-05
4.92387e-06
9.5265e-06
1.06138e-05
1.1694e-05
1.45487e-05
1.83811e-05
1.8938e-05
1.888e-05
1.81393e-05
1.95273e-05
2.16622e-05
2.33591e-05
2.54839e-05
2.63106e-05
2.64e-05
2.68872e-05
2.67832e-05
2.55006e-05
2.27835e-05
2.01393e-05
6.40606e-06
1.73264e-05
1.70797e-05
1.63972e-05
1.83352e-05
1.91266e-05
1.93006e-05
1.96125e-05
2.3763e-05
2.67371e-05
3.05337e-05
3.35401e-05
3.29865e-05
3.28654e-05
3.07854e-05
2.89655e-05
2.69688e-05
2.54851e-05
2.44727e-05
2.35733e-05
7.74898e-06
2.22774e-05
2.14176e-05
1.9251e-05
2.0061e-05
2.06538e-05
2.0838e-05
2.53876e-05
3.02948e-05
3.50768e-05
4.01998e-05
4.2909e-05
4.34336e-05
4.30804e-05
4.00727e-05
3.60712e-05
3.18722e-05
2.78349e-05
2.49099e-05
2.55005e-05
8.91609e-06
2.6141e-05
2.5892e-05
2.17437e-05
2.18775e-05
2.1774e-05
2.31176e-05
2.9919e-05
3.54777e-05
4.1137e-05
4.53725e-05
4.83176e-05
5.08842e-05
5.16332e-05
4.94476e-05
4.4124e-05
3.74889e-05
3.06948e-05
2.55977e-05
2.68573e-05
9.9092e-06
2.9054e-05
3.05792e-05
2.31426e-05
2.28828e-05
2.30725e-05
2.50875e-05
3.19757e-05
3.77914e-05
4.20492e-05
4.48539e-05
4.6318e-05
5.0417e-05
5.47843e-05
5.66599e-05
5.2411e-05
4.38939e-05
3.50558e-05
2.71142e-05
2.78652e-05
1.07225e-05
3.06744e-05
3.48706e-05
2.6389e-05
2.36669e-05
2.36895e-05
2.56911e-05
3.15378e-05
3.70107e-05
3.96121e-05
4.05321e-05
4.09523e-05
4.46765e-05
5.33154e-05
6.10918e-05
5.97307e-05
4.99135e-05
3.82663e-05
2.88648e-05
2.87063e-05
1.13441e-05
3.11768e-05
4.05614e-05
3.19404e-05
2.62882e-05
2.47246e-05
2.51668e-05
2.86857e-05
3.2805e-05
3.48146e-05
3.53807e-05
3.6506e-05
4.13769e-05
5.23108e-05
6.38953e-05
6.57334e-05
5.58335e-05
4.1464e-05
3.04932e-05
2.94584e-05
1.18047e-05
3.0694e-05
4.53404e-05
4.001e-05
3.14271e-05
2.79817e-05
2.70024e-05
2.81946e-05
3.03793e-05
3.19937e-05
3.3094e-05
3.53396e-05
4.03632e-05
5.43924e-05
7.1108e-05
7.3722e-05
6.09916e-05
4.28718e-05
3.18504e-05
3.01933e-05
1.20757e-05
2.93066e-05
4.88779e-05
4.90798e-05
4.02804e-05
3.35434e-05
3.06963e-05
2.96226e-05
3.08392e-05
3.21122e-05
3.41126e-05
3.73553e-05
4.56351e-05
6.25518e-05
7.86949e-05
8.12583e-05
6.41701e-05
4.32296e-05
3.2854e-05
3.09546e-05
1.21744e-05
2.71646e-05
5.04097e-05
5.70375e-05
5.27167e-05
4.49306e-05
3.96151e-05
3.5966e-05
3.4913e-05
3.60378e-05
3.98422e-05
4.55047e-05
5.72197e-05
7.48382e-05
8.87206e-05
8.66741e-05
6.62599e-05
4.29078e-05
3.34825e-05
3.17856e-05
1.21274e-05
2.50754e-05
4.99608e-05
6.27022e-05
6.477e-05
6.01588e-05
5.5147e-05
5.2205e-05
5.05023e-05
5.16456e-05
5.58172e-05
6.20603e-05
7.31594e-05
8.7104e-05
9.50962e-05
9.0702e-05
6.65953e-05
4.02282e-05
3.38273e-05
3.2724e-05
1.1982e-05
2.36652e-05
4.8739e-05
6.6533e-05
7.45801e-05
7.44253e-05
7.21794e-05
7.02819e-05
6.91786e-05
7.07704e-05
7.41629e-05
7.91272e-05
8.70032e-05
9.5761e-05
0.000100327
9.31021e-05
6.50809e-05
3.69784e-05
3.39589e-05
3.38178e-05
1.17372e-05
2.25678e-05
4.74213e-05
6.87387e-05
8.18384e-05
8.63302e-05
8.73555e-05
8.72427e-05
8.69354e-05
8.73173e-05
8.91436e-05
9.20987e-05
9.65722e-05
0.00010162
0.000102059
9.17735e-05
6.09799e-05
3.21452e-05
3.38421e-05
3.51213e-05
1.14542e-05
2.19852e-05
4.69879e-05
7.03268e-05
8.64081e-05
9.44284e-05
9.82072e-05
9.9593e-05
9.97096e-05
9.92484e-05
9.90756e-05
9.91778e-05
9.9882e-05
0.000100264
9.62298e-05
8.37595e-05
5.2887e-05
2.71279e-05
3.34294e-05
3.6704e-05
1.1234e-05
2.30565e-05
4.76311e-05
7.00517e-05
8.58268e-05
9.37939e-05
9.76557e-05
9.89672e-05
9.8646e-05
9.7093e-05
9.54688e-05
9.30565e-05
9.04078e-05
8.67914e-05
8.06163e-05
6.80635e-05
4.10423e-05
2.32869e-05
3.2613e-05
3.86542e-05
1.10866e-05
2.35778e-05
4.49309e-05
6.09125e-05
7.07308e-05
7.55811e-05
7.75236e-05
7.73776e-05
7.57391e-05
7.26326e-05
6.93333e-05
6.49909e-05
6.06593e-05
5.57516e-05
5.03904e-05
4.28271e-05
2.73275e-05
1.81255e-05
3.22646e-05
4.11955e-05
1.16187e-05
1.82451e-05
2.41696e-05
2.70427e-05
2.88648e-05
2.98407e-05
3.01941e-05
2.99347e-05
2.92362e-05
2.79851e-05
2.66823e-05
2.50746e-05
2.3813e-05
2.22658e-05
2.11867e-05
1.95069e-05
1.65658e-05
1.80967e-05
3.41395e-05
4.46847e-05
1.40583e-05
1.05598e-05
1.25121e-05
1.38117e-05
1.49193e-05
1.58934e-05
1.67287e-05
1.75257e-05
1.81849e-05
1.89158e-05
1.94777e-05
2.02688e-05
2.08858e-05
2.18515e-05
2.27502e-05
2.39596e-05
2.58433e-05
3.03856e-05
4.39739e-05
5.03564e-05
3.54443e-05
4.50536e-05
5.13475e-05
5.45278e-05
5.62626e-05
5.72459e-05
5.78023e-05
5.80898e-05
5.82144e-05
5.82092e-05
5.8162e-05
5.80973e-05
5.79569e-05
5.78856e-05
5.7823e-05
5.79171e-05
5.81603e-05
5.85292e-05
5.97982e-05
5.65004e-05
)
;

boundaryField
{
    movingWall
    {
        type            nutkWallFunction;
        Cmu             0.09;
        kappa           0.41;
        E               9.8;
        value           nonuniform List<scalar> 
20
(
0
0
6.75723e-07
1.19744e-06
1.48031e-06
1.64022e-06
1.73056e-06
1.77722e-06
1.79736e-06
1.79647e-06
1.7887e-06
1.77807e-06
1.75509e-06
1.7434e-06
1.73291e-06
1.74803e-06
1.7872e-06
1.84674e-06
2.0511e-06
1.51795e-06
)
;
    }
    fixedWalls
    {
        type            nutkWallFunction;
        Cmu             0.09;
        kappa           0.41;
        E               9.8;
        value           nonuniform List<scalar> 
60
(
0
0
0
0
0
0
0
0
0
0
0
0
0
0
0
0
0
0
0
0
0
0
0
0
0
0
0
0
0
0
0
0
0
0
0
0
0
0
5.11916e-07
1.51795e-06
0
0
0
0
0
0
0
0
0
0
0
0
0
0
0
0
0
0
0
0
)
;
    }
    frontAndBack
    {
        type            empty;
    }
}


// ************************************************************************* //
