/*--------------------------------*- C++ -*----------------------------------*\
| =========                 |                                                 |
| \\      /  F ield         | OpenFOAM: The Open Source CFD Toolbox           |
|  \\    /   O peration     | Version:  4.1                                   |
|   \\  /    A nd           | Web:      www.OpenFOAM.org                      |
|    \\/     M anipulation  |                                                 |
\*---------------------------------------------------------------------------*/
FoamFile
{
    version     2.0;
    format      ascii;
    class       volScalarField;
    location    "2.5";
    object      p;
}
// * * * * * * * * * * * * * * * * * * * * * * * * * * * * * * * * * * * * * //

dimensions      [0 2 -2 0 0 0 0];

internalField   nonuniform List<scalar> 
400
(
5.04942e-08
-2.09193e-05
-5.17801e-05
-9.77207e-05
-0.000140008
-0.000197775
-0.000467546
-0.00123871
-0.00237549
-0.00346748
-0.00418611
-0.00439977
-0.00401383
-0.00303364
-0.00147757
0.000622988
0.00310923
0.00559215
0.00734049
0.00782624
3.18315e-05
8.53481e-06
-2.83099e-05
-0.000100899
-0.000217847
-0.00043315
-0.000942318
-0.00190633
-0.003114
-0.00417156
-0.00486931
-0.00505276
-0.00470082
-0.00382933
-0.0024196
-0.000516771
0.00181431
0.00426822
0.00621856
0.00701415
2.786e-05
-8.47017e-06
-6.34533e-05
-0.000190614
-0.000450181
-0.000953694
-0.00185678
-0.00310224
-0.0044
-0.00548094
-0.00615605
-0.00626034
-0.00586088
-0.00502736
-0.00380237
-0.00219631
-0.000202309
0.00207207
0.00417947
0.00527068
-7.62336e-05
-0.00013567
-0.000224639
-0.000428112
-0.00087718
-0.00169861
-0.00296841
-0.00446821
-0.00584589
-0.00685973
-0.0073867
-0.00740094
-0.00696851
-0.00618407
-0.00513035
-0.00383417
-0.0022462
-0.000326902
0.00169422
0.0028566
-0.000316389
-0.000406553
-0.000541802
-0.000826344
-0.0014613
-0.00251637
-0.00402305
-0.00567031
-0.00705171
-0.00799278
-0.00843166
-0.00837727
-0.00790388
-0.00714395
-0.00621033
-0.00515613
-0.00393795
-0.00244027
-0.00068974
0.000415657
-0.000684735
-0.000802698
-0.000987034
-0.00133404
-0.00208746
-0.00327012
-0.00485431
-0.00655358
-0.00792864
-0.00882451
-0.00921367
-0.00911069
-0.00860669
-0.00785443
-0.00699721
-0.00610865
-0.00516558
-0.0040378
-0.00270956
-0.00167785
-0.00112681
-0.0012609
-0.00148479
-0.00186031
-0.00262432
-0.00383882
-0.00538459
-0.0070522
-0.00841218
-0.00928165
-0.00964436
-0.00951485
-0.00898797
-0.0082449
-0.00745287
-0.0066875
-0.00594156
-0.00509252
-0.00415203
-0.00325659
-0.00157464
-0.00170854
-0.0019523
-0.00233347
-0.00302031
-0.00415395
-0.005573
-0.00713021
-0.00842642
-0.00926227
-0.00960671
-0.00947318
-0.00895748
-0.00826014
-0.00755546
-0.00690445
-0.00631969
-0.00567074
-0.00502682
-0.00428365
-0.00197178
-0.00209234
-0.00232974
-0.00269737
-0.00327503
-0.00423485
-0.00544167
-0.00677275
-0.00793396
-0.00870815
-0.00903969
-0.00894621
-0.0085059
-0.00791677
-0.00733718
-0.00680611
-0.00637346
-0.00583483
-0.00542981
-0.00482562
-0.00229484
-0.00239043
-0.00259679
-0.00291909
-0.0034039
-0.00414088
-0.00508413
-0.00612582
-0.00707786
-0.00774849
-0.00806985
-0.00807755
-0.0077546
-0.00732765
-0.00689829
-0.00649432
-0.00617297
-0.00568116
-0.00550388
-0.00497245
-0.00253623
-0.00260629
-0.00276999
-0.00303258
-0.0034179
-0.00396273
-0.00465732
-0.00543209
-0.00616539
-0.00671603
-0.00701065
-0.0070274
-0.00690751
-0.006652
-0.00635817
-0.00605423
-0.00581651
-0.00532658
-0.00537686
-0.00481201
-0.00270528
-0.00275229
-0.00287116
-0.00307122
-0.00336763
-0.00377337
-0.00428149
-0.00485044
-0.00540427
-0.00585255
-0.00612862
-0.00621864
-0.00616752
-0.00601447
-0.0058101
-0.00557112
-0.0053971
-0.00485901
-0.00516235
-0.00439496
-0.00282503
-0.00284787
-0.00292227
-0.00306404
-0.00328818
-0.00359859
-0.00398469
-0.00441712
-0.00484734
-0.00521142
-0.00545298
-0.00556325
-0.00555706
-0.0054622
-0.00530941
-0.00510383
-0.00497656
-0.00436335
-0.00490439
-0.00378166
-0.00291128
-0.00290724
-0.00293827
-0.00302841
-0.00319474
-0.0034381
-0.0037452
-0.00409039
-0.00443696
-0.00473779
-0.00495499
-0.0050672
-0.00508215
-0.00501437
-0.00488503
-0.00468661
-0.00459335
-0.00389073
-0.00463248
-0.00308492
-0.0029792
-0.00294224
-0.00293181
-0.00297532
-0.00309368
-0.00328709
-0.00354071
-0.00383031
-0.00412473
-0.00438673
-0.00458441
-0.00469825
-0.00472484
-0.00466985
-0.00454867
-0.00434061
-0.00427078
-0.00345986
-0.00439288
-0.00243936
-0.00304172
-0.00295148
-0.00289722
-0.00289556
-0.00297347
-0.00312892
-0.00334621
-0.00360218
-0.00386886
-0.00411267
-0.00430653
-0.00442618
-0.00446716
-0.00442516
-0.00431013
-0.00409255
-0.00402028
-0.00307806
-0.00418919
-0.00172951
-0.00309424
-0.00294559
-0.00286366
-0.00280117
-0.00282609
-0.00294166
-0.00313089
-0.00336923
-0.00362991
-0.00388008
-0.00408655
-0.00422532
-0.00429136
-0.00426998
-0.00417424
-0.0039574
-0.00382179
-0.00271485
-0.00376579
0.000347751
-0.00302923
-0.00275728
-0.00267933
-0.00260386
-0.00261661
-0.00271798
-0.00290022
-0.00313907
-0.00340541
-0.00366763
-0.00389997
-0.00407408
-0.00417338
-0.00417391
-0.00407518
-0.00383805
-0.00351313
-0.00215449
-0.00175465
0.00735489
-0.00487908
-0.00393829
-0.00337608
-0.00289765
-0.00270919
-0.00271697
-0.00285611
-0.00307481
-0.00333723
-0.00360105
-0.00384783
-0.00403649
-0.004156
-0.00416796
-0.00405792
-0.00370313
-0.00281016
-0.000336502
0.00385179
0.0206474
-0.000492092
0.000561444
-0.00047358
-0.00120041
-0.00162654
-0.00194904
-0.00227732
-0.00262625
-0.00298039
-0.00331363
-0.00360233
-0.00382591
-0.00393961
-0.00389882
-0.00356503
-0.00278228
-0.000867835
0.00366152
0.0127494
0.0312463
)
;

boundaryField
{
    movingWall
    {
        type            zeroGradient;
    }
    fixedWalls
    {
        type            zeroGradient;
    }
    frontAndBack
    {
        type            empty;
    }
}


// ************************************************************************* //
