/*--------------------------------*- C++ -*----------------------------------*\
| =========                 |                                                 |
| \\      /  F ield         | OpenFOAM: The Open Source CFD Toolbox           |
|  \\    /   O peration     | Version:  4.1                                   |
|   \\  /    A nd           | Web:      www.OpenFOAM.org                      |
|    \\/     M anipulation  |                                                 |
\*---------------------------------------------------------------------------*/
FoamFile
{
    version     2.0;
    format      ascii;
    class       surfaceScalarField;
    location    "2.5";
    object      phi;
}
// * * * * * * * * * * * * * * * * * * * * * * * * * * * * * * * * * * * * * //

dimensions      [0 3 -1 0 0 0 0];

internalField   nonuniform List<scalar> 
760
(
-4.76745e-08
4.76696e-08
-1.7286e-07
1.25186e-07
-3.42242e-07
1.69381e-07
-6.11043e-07
2.68801e-07
-1.12854e-06
5.17497e-07
-2.00747e-06
8.78934e-07
-3.19367e-06
1.1862e-06
-4.42122e-06
1.22755e-06
-5.44075e-06
1.01953e-06
-6.19982e-06
7.59076e-07
-6.67292e-06
4.73091e-07
-6.89566e-06
2.22742e-07
-6.88165e-06
-1.4003e-08
-6.63108e-06
-2.50579e-07
-6.16182e-06
-4.69256e-07
-5.39678e-06
-7.65039e-07
-4.30617e-06
-1.0906e-06
-2.85364e-06
-1.45253e-06
-1.22073e-06
-1.63291e-06
-1.22073e-06
-2.03727e-07
2.51396e-07
-5.25504e-07
4.46963e-07
-9.3346e-07
5.77337e-07
-1.5109e-06
8.46242e-07
-2.36885e-06
1.37545e-06
-3.45733e-06
1.96741e-06
-4.56702e-06
2.29589e-06
-5.50213e-06
2.16265e-06
-6.22661e-06
1.74401e-06
-6.73917e-06
1.27164e-06
-7.04783e-06
7.8175e-07
-7.11993e-06
2.94837e-07
-6.98747e-06
-1.46458e-07
-6.69986e-06
-5.38189e-07
-6.21552e-06
-9.53595e-07
-5.53541e-06
-1.44515e-06
-4.5659e-06
-2.06012e-06
-3.24732e-06
-2.77112e-06
-1.59779e-06
-3.28244e-06
-2.81852e-06
-3.51076e-07
6.02473e-07
-8.15296e-07
9.11182e-07
-1.38703e-06
1.14907e-06
-2.11661e-06
1.57583e-06
-3.01547e-06
2.27431e-06
-3.9658e-06
2.91775e-06
-4.79673e-06
3.12682e-06
-5.43187e-06
2.7978e-06
-5.87602e-06
2.18816e-06
-6.10986e-06
1.50548e-06
-6.16341e-06
8.35308e-07
-6.06592e-06
1.97344e-07
-5.86981e-06
-3.42569e-07
-5.56959e-06
-8.38412e-07
-5.18228e-06
-1.3409e-06
-4.69065e-06
-1.93678e-06
-4.01421e-06
-2.73655e-06
-3.02445e-06
-3.76088e-06
-1.64595e-06
-4.66094e-06
-4.46447e-06
-4.31493e-07
1.03397e-06
-9.55579e-07
1.43527e-06
-1.56797e-06
1.76146e-06
-2.27191e-06
2.27977e-06
-3.03734e-06
3.03974e-06
-3.74365e-06
3.62405e-06
-4.29485e-06
3.67802e-06
-4.67031e-06
3.17326e-06
-4.87875e-06
2.39659e-06
-4.95018e-06
1.57691e-06
-4.90221e-06
7.87335e-07
-4.75517e-06
5.03061e-08
-4.51649e-06
-5.81256e-07
-4.21701e-06
-1.13789e-06
-3.89105e-06
-1.66686e-06
-3.54566e-06
-2.28218e-06
-3.13845e-06
-3.14376e-06
-2.50398e-06
-4.39535e-06
-1.44317e-06
-5.72175e-06
-5.90764e-06
-4.31273e-07
1.46524e-06
-9.30507e-07
1.9345e-06
-1.4786e-06
2.30955e-06
-2.05219e-06
2.85336e-06
-2.6227e-06
3.61025e-06
-3.07306e-06
4.07441e-06
-3.40889e-06
4.01384e-06
-3.63556e-06
3.39993e-06
-3.76451e-06
2.52554e-06
-3.80175e-06
1.61415e-06
-3.74091e-06
7.26496e-07
-3.5789e-06
-1.11697e-07
-3.33272e-06
-8.27438e-07
-3.04313e-06
-1.42748e-06
-2.75529e-06
-1.9547e-06
-2.49501e-06
-2.54246e-06
-2.24981e-06
-3.38896e-06
-1.89732e-06
-4.74783e-06
-1.16409e-06
-6.45498e-06
-7.07173e-06
-3.67796e-07
1.83304e-06
-7.81616e-07
2.34832e-06
-1.2092e-06
2.73714e-06
-1.61858e-06
3.26274e-06
-1.95723e-06
3.9489e-06
-2.17464e-06
4.29182e-06
-2.36201e-06
4.20122e-06
-2.52011e-06
3.55803e-06
-2.62612e-06
2.63155e-06
-2.6651e-06
1.65313e-06
-2.62089e-06
6.82287e-07
-2.48976e-06
-2.42829e-07
-2.28036e-06
-1.03684e-06
-2.04202e-06
-1.66581e-06
-1.82204e-06
-2.17468e-06
-1.64887e-06
-2.71563e-06
-1.53219e-06
-3.50564e-06
-1.39231e-06
-4.88772e-06
-9.00768e-07
-6.94652e-06
-7.9725e-06
-2.65219e-07
2.09825e-06
-5.61477e-07
2.64458e-06
-8.4019e-07
3.01585e-06
-1.06431e-06
3.48686e-06
-1.18216e-06
4.06675e-06
-1.23445e-06
4.34411e-06
-1.27951e-06
4.24628e-06
-1.36444e-06
3.64296e-06
-1.44417e-06
2.71128e-06
-1.48137e-06
1.69033e-06
-1.463e-06
6.63912e-07
-1.39107e-06
-3.14756e-07
-1.26274e-06
-1.16517e-06
-1.1264e-06
-1.80215e-06
-1.01753e-06
-2.28356e-06
-9.53181e-07
-2.77998e-06
-9.44995e-07
-3.51383e-06
-9.31981e-07
-4.90073e-06
-6.95487e-07
-7.18301e-06
-8.66799e-06
-1.49849e-07
2.2481e-06
-3.22889e-07
2.81762e-06
-4.56079e-07
3.14904e-06
-5.03247e-07
3.53402e-06
-4.25762e-07
3.98927e-06
-3.25593e-07
4.24394e-06
-2.27437e-07
4.14812e-06
-2.02209e-07
3.61773e-06
-2.18701e-07
2.72777e-06
-2.39175e-07
1.71081e-06
-2.47977e-07
6.72714e-07
-2.53074e-07
-3.09659e-07
-2.57597e-07
-1.16065e-06
-2.82183e-07
-1.77756e-06
-3.25306e-07
-2.24043e-06
-3.92398e-07
-2.71289e-06
-5.01913e-07
-3.40431e-06
-5.86844e-07
-4.8158e-06
-5.10212e-07
-7.25964e-06
-9.1782e-06
-4.297e-08
2.29107e-06
-1.0429e-07
2.87894e-06
-1.19205e-07
3.16395e-06
-3.24383e-08
3.44726e-06
1.82835e-07
3.77399e-06
4.51186e-07
3.97559e-06
7.11378e-07
3.88793e-06
8.79669e-07
3.44944e-06
9.40798e-07
2.66664e-06
9.34993e-07
1.71661e-06
8.79807e-07
7.279e-07
7.66639e-07
-1.96491e-07
6.10665e-07
-1.00467e-06
4.23534e-07
-1.59043e-06
2.35481e-07
-2.05238e-06
4.33721e-08
-2.52078e-06
-1.57473e-07
-3.20347e-06
-3.41763e-07
-4.63151e-06
-3.89825e-07
-7.21158e-06
-9.56802e-06
4.63151e-08
2.24476e-06
7.16597e-08
2.8536e-06
1.37733e-07
3.09788e-06
2.91762e-07
3.29323e-06
5.76036e-07
3.48972e-06
9.44804e-07
3.60682e-06
1.31327e-06
3.51946e-06
1.60221e-06
3.1605e-06
1.75244e-06
2.51641e-06
1.77567e-06
1.69338e-06
1.69007e-06
8.13504e-07
1.49767e-06
-4.08809e-09
1.22502e-06
-7.32027e-07
9.2732e-07
-1.29273e-06
6.42234e-07
-1.76729e-06
3.69893e-07
-2.24844e-06
8.82572e-08
-2.92183e-06
-1.80175e-07
-4.36308e-06
-3.01901e-07
-7.08986e-06
-9.86992e-06
1.02375e-07
2.14238e-06
1.94593e-07
2.76138e-06
3.16968e-07
2.97551e-06
5.09431e-07
3.10076e-06
8.01296e-07
3.19786e-06
1.17627e-06
3.23185e-06
1.57e-06
3.12573e-06
1.90678e-06
2.82372e-06
2.11489e-06
2.3083e-06
2.17074e-06
1.63753e-06
2.07521e-06
9.09027e-07
1.86573e-06
2.054e-07
1.55872e-06
-4.25024e-07
1.22849e-06
-9.62503e-07
9.03094e-07
-1.44189e-06
5.81966e-07
-1.92731e-06
2.46457e-07
-2.58632e-06
-7.67373e-08
-4.03988e-06
-2.65348e-07
-6.90125e-06
-1.01353e-05
1.37083e-07
2.0053e-06
2.7122e-07
2.62724e-06
4.29375e-07
2.81735e-06
6.38483e-07
2.89166e-06
9.16593e-07
2.91975e-06
1.2565e-06
2.89194e-06
1.61684e-06
2.7654e-06
1.93702e-06
2.50354e-06
2.15261e-06
2.09271e-06
2.22581e-06
1.56433e-06
2.15863e-06
9.76203e-07
1.97181e-06
3.92224e-07
1.69896e-06
-1.52171e-07
1.38416e-06
-6.47709e-07
1.05264e-06
-1.11037e-06
7.1232e-07
-1.58699e-06
3.51876e-07
-2.22588e-06
-2.07525e-08
-3.66726e-06
-2.43098e-07
-6.6789e-06
-1.03784e-05
1.4817e-07
1.85713e-06
3.05733e-07
2.46968e-06
4.85281e-07
2.6378e-06
7.01904e-07
2.67503e-06
9.63915e-07
2.65774e-06
1.26516e-06
2.5907e-06
1.57818e-06
2.45238e-06
1.85998e-06
2.22174e-06
2.06255e-06
1.89015e-06
2.15119e-06
1.47569e-06
2.11557e-06
1.01182e-06
1.96749e-06
5.40311e-07
1.73603e-06
7.92832e-08
1.45044e-06
-3.62112e-07
1.13146e-06
-7.91392e-07
7.91913e-07
-1.24744e-06
4.26937e-07
-1.8609e-06
3.30639e-08
-3.27338e-06
-2.19813e-07
-6.42602e-06
-1.05982e-05
1.36989e-07
1.72014e-06
3.02961e-07
2.30371e-06
4.95058e-07
2.4457e-06
7.159e-07
2.45419e-06
9.65875e-07
2.40776e-06
1.23772e-06
2.31885e-06
1.51142e-06
2.17867e-06
1.75656e-06
1.9766e-06
1.93825e-06
1.70846e-06
2.03047e-06
1.38348e-06
2.02056e-06
1.02172e-06
1.91503e-06
6.45847e-07
1.72707e-06
2.67237e-07
1.47629e-06
-1.1133e-07
1.17806e-06
-4.93162e-07
8.47622e-07
-9.17003e-07
4.91582e-07
-1.50486e-06
1.12861e-07
-2.89466e-06
-1.46358e-07
-6.16681e-06
-1.07445e-05
9.97736e-08
1.62037e-06
2.62027e-07
2.14145e-06
4.59969e-07
2.24776e-06
6.86032e-07
2.22813e-06
9.3167e-07
2.16212e-06
1.18754e-06
2.06299e-06
1.43771e-06
1.92849e-06
1.66005e-06
1.75427e-06
1.82956e-06
1.53895e-06
1.92664e-06
1.2864e-06
1.94065e-06
1.00771e-06
1.87036e-06
7.16134e-07
1.72094e-06
4.16654e-07
1.50224e-06
1.07371e-07
1.22296e-06
-2.13878e-07
8.99726e-07
-5.93772e-07
5.58344e-07
-1.16348e-06
2.09989e-07
-2.54631e-06
-1.72668e-08
-5.93955e-06
-1.07618e-05
4.41228e-08
1.57625e-06
1.96667e-07
1.98891e-06
3.92667e-07
2.05176e-06
6.2264e-07
1.99816e-06
8.70151e-07
1.91461e-06
1.12308e-06
1.81005e-06
1.36674e-06
1.68484e-06
1.58341e-06
1.5376e-06
1.75371e-06
1.36865e-06
1.86419e-06
1.17591e-06
1.9037e-06
9.68202e-07
1.86741e-06
7.52424e-07
1.75106e-06
5.33003e-07
1.56037e-06
2.98061e-07
1.29581e-06
5.06766e-08
9.76368e-07
-2.74326e-07
6.61255e-07
-8.48366e-07
3.50051e-07
-2.2351e-06
1.01087e-07
-5.69059e-06
-1.06607e-05
-1.49044e-07
1.72529e-06
-1.12666e-08
1.85113e-06
2.1827e-07
1.82223e-06
4.92224e-07
1.7242e-06
7.68024e-07
1.63881e-06
1.04084e-06
1.53724e-06
1.29916e-06
1.42651e-06
1.53035e-06
1.30641e-06
1.72263e-06
1.17637e-06
1.86261e-06
1.03594e-06
1.93495e-06
8.95856e-07
1.93599e-06
7.51388e-07
1.85711e-06
6.11885e-07
1.70309e-06
4.52075e-07
1.45894e-06
2.94832e-07
1.16018e-06
2.4436e-08
8.74815e-07
-5.63005e-07
5.73036e-07
-1.93332e-06
2.31584e-07
-5.34913e-06
-1.04291e-05
-3.34973e-07
2.06026e-06
-1.46642e-07
1.6628e-06
1.04613e-07
1.57097e-06
3.91123e-07
1.43769e-06
7.11375e-07
1.31856e-06
1.03696e-06
1.21165e-06
1.34669e-06
1.11678e-06
1.62777e-06
1.02532e-06
1.86475e-06
9.39392e-07
2.04922e-06
8.51467e-07
2.17387e-06
7.71202e-07
2.24203e-06
6.83233e-07
2.24231e-06
6.11601e-07
2.17427e-06
5.20116e-07
2.03362e-06
4.35483e-07
1.87007e-06
1.87986e-07
1.64135e-06
-3.34287e-07
1.34698e-06
-1.63895e-06
6.62639e-07
-4.66479e-06
-9.7665e-06
-4.58339e-07
2.5186e-06
-2.0529e-07
1.40975e-06
3.37912e-07
1.02777e-06
8.8704e-07
8.88565e-07
1.40865e-06
7.96954e-07
1.90015e-06
7.20156e-07
2.35835e-06
6.58575e-07
2.7822e-06
6.01474e-07
3.16319e-06
5.58402e-07
3.5068e-06
5.07855e-07
3.80115e-06
4.76853e-07
4.06092e-06
4.23469e-07
4.27205e-06
4.00463e-07
4.46656e-06
3.25609e-07
4.62108e-06
2.80961e-07
4.71235e-06
9.6716e-08
4.61071e-06
-2.32644e-07
4.1282e-06
-1.15643e-06
2.3967e-06
-2.9333e-06
-7.36979e-06
2.5186e-06
3.92835e-06
4.95612e-06
5.84469e-06
6.64164e-06
7.3618e-06
8.02037e-06
8.62185e-06
9.18025e-06
9.6881e-06
1.0165e-05
1.05884e-05
1.09889e-05
1.13145e-05
1.15955e-05
1.16922e-05
1.14595e-05
1.03031e-05
7.36979e-06
)
;

boundaryField
{
    movingWall
    {
        type            calculated;
        value           uniform 0;
    }
    fixedWalls
    {
        type            calculated;
        value           uniform 0;
    }
    frontAndBack
    {
        type            empty;
        value           nonuniform 0();
    }
}


// ************************************************************************* //
