/*--------------------------------*- C++ -*----------------------------------*\
| =========                 |                                                 |
| \\      /  F ield         | OpenFOAM: The Open Source CFD Toolbox           |
|  \\    /   O peration     | Version:  4.1                                   |
|   \\  /    A nd           | Web:      www.OpenFOAM.org                      |
|    \\/     M anipulation  |                                                 |
\*---------------------------------------------------------------------------*/
FoamFile
{
    version     2.0;
    format      ascii;
    class       volVectorField;
    location    "2.5";
    object      U;
}
// * * * * * * * * * * * * * * * * * * * * * * * * * * * * * * * * * * * * * //

dimensions      [0 1 -1 0 0 0 0];

internalField   nonuniform List<vector> 
400
(
(-0.000146922 -0.000112628 0)
(-0.0018543 0.000379635 0)
(-0.00490874 0.00062498 0)
(-0.00887592 0.00110652 0)
(-0.0156709 0.00284676 0)
(-0.0282754 0.00676391 0)
(-0.0494164 0.0118979 0)
(-0.077566 0.0137368 0)
(-0.102494 0.0111155 0)
(-0.119464 0.00838254 0)
(-0.131338 0.00600958 0)
(-0.136972 0.00326314 0)
(-0.138971 0.00107933 0)
(-0.13632 -0.00259981 0)
(-0.128205 -0.00465635 0)
(-0.115548 -0.00865713 0)
(-0.0957882 -0.0118629 0)
(-0.0701485 -0.015591 0)
(-0.0395144 -0.0161646 0)
(-0.0132244 -0.00869132 0)
(-0.00155118 0.00226398 0)
(-0.00675886 0.00503445 0)
(-0.0139164 0.00662588 0)
(-0.0231584 0.0102068 0)
(-0.036877 0.018522 0)
(-0.0562894 0.0290342 0)
(-0.079712 0.0355749 0)
(-0.103159 0.0342115 0)
(-0.12065 0.028061 0)
(-0.13155 0.0209848 0)
(-0.140339 0.0122889 0)
(-0.142803 0.00517717 0)
(-0.142122 -0.00184906 0)
(-0.137603 -0.00869537 0)
(-0.129604 -0.0160595 0)
(-0.117672 -0.0246222 0)
(-0.100301 -0.0348073 0)
(-0.0768805 -0.0454983 0)
(-0.0479928 -0.0510911 0)
(-0.0186147 -0.0388333 0)
(-0.00326889 0.00826555 0)
(-0.0110633 0.0134015 0)
(-0.0209735 0.0171123 0)
(-0.0337499 0.0243567 0)
(-0.0498469 0.0371768 0)
(-0.0690071 0.0496459 0)
(-0.0887783 0.0544498 0)
(-0.105209 0.0494031 0)
(-0.115277 0.0388169 0)
(-0.122185 0.0270895 0)
(-0.124373 0.0162251 0)
(-0.122449 0.00483075 0)
(-0.119434 -0.00513499 0)
(-0.114578 -0.0146959 0)
(-0.107712 -0.0246431 0)
(-0.0991994 -0.0365162 0)
(-0.086916 -0.0518831 0)
(-0.0696039 -0.0701055 0)
(-0.045695 -0.0843101 0)
(-0.0191429 -0.0766707 0)
(-0.0043138 0.0162589 0)
(-0.0133603 0.0234027 0)
(-0.0241358 0.0291912 0)
(-0.0373294 0.0389663 0)
(-0.0521265 0.0536953 0)
(-0.0679132 0.0658632 0)
(-0.08257 0.0682332 0)
(-0.0923199 0.0595021 0)
(-0.0975676 0.0455709 0)
(-0.0997674 0.030773 0)
(-0.0991249 0.0160204 0)
(-0.0967644 0.00249999 0)
(-0.0925692 -0.00925667 0)
(-0.0870485 -0.0199629 0)
(-0.0810271 -0.0305376 0)
(-0.0747713 -0.0431887 0)
(-0.0672964 -0.0607566 0)
(-0.0560152 -0.0845721 0)
(-0.0385687 -0.107152 0)
(-0.0168406 -0.107651 0)
(-0.00442575 0.0249083 0)
(-0.0133243 0.0337216 0)
(-0.0231504 0.0408601 0)
(-0.0344051 0.0515864 0)
(-0.0464579 0.066739 0)
(-0.0575458 0.077564 0)
(-0.0670096 0.0770443 0)
(-0.0727137 0.0655689 0)
(-0.0753676 0.0489933 0)
(-0.076598 0.0316116 0)
(-0.0758855 0.0147752 0)
(-0.0732392 -0.000783364 0)
(-0.0688465 -0.0144749 0)
(-0.0632984 -0.0261127 0)
(-0.0576782 -0.0367085 0)
(-0.0526618 -0.0488196 0)
(-0.0480985 -0.0663261 0)
(-0.041551 -0.0937116 0)
(-0.02987 -0.124487 0)
(-0.0142031 -0.132631 0)
(-0.00376346 0.0329831 0)
(-0.0114386 0.0429856 0)
(-0.0192275 0.0507483 0)
(-0.0274889 0.0615778 0)
(-0.0363727 0.0763356 0)
(-0.0417613 0.0840894 0)
(-0.0467834 0.0824269 0)
(-0.0507533 0.0695226 0)
(-0.052337 0.0512405 0)
(-0.0536058 0.0321685 0)
(-0.0532327 0.0135211 0)
(-0.0510293 -0.00396638 0)
(-0.0473053 -0.0193299 0)
(-0.0426402 -0.0316592 0)
(-0.0382237 -0.0419299 0)
(-0.0346374 -0.0530322 0)
(-0.0322573 -0.0691836 0)
(-0.0291258 -0.0966465 0)
(-0.023813 -0.135898 0)
(-0.00918617 -0.152243 0)
(-0.00260629 0.0394653 0)
(-0.00838722 0.0502214 0)
(-0.0137274 0.0579548 0)
(-0.0185404 0.0680505 0)
(-0.023023 0.0810479 0)
(-0.0247712 0.0869683 0)
(-0.0258097 0.0851046 0)
(-0.0277642 0.0724496 0)
(-0.0287031 0.0534583 0)
(-0.0297271 0.0331234 0)
(-0.0296553 0.0129361 0)
(-0.0283324 -0.00620355 0)
(-0.0259907 -0.0228602 0)
(-0.0232658 -0.035478 0)
(-0.0210703 -0.0452537 0)
(-0.0195339 -0.0554638 0)
(-0.0193708 -0.0705049 0)
(-0.0182591 -0.0981103 0)
(-0.0180466 -0.141791 0)
(-0.00680103 -0.167153 0)
(-0.00127575 0.0436962 0)
(-0.00493491 0.0550233 0)
(-0.00784198 0.0621641 0)
(-0.00959398 0.070806 0)
(-0.0095425 0.0813252 0)
(-0.00806244 0.0869351 0)
(-0.00568643 0.0851629 0)
(-0.00456047 0.0737324 0)
(-0.0042839 0.0552233 0)
(-0.00470939 0.0344473 0)
(-0.00478981 0.0133863 0)
(-0.00475756 -0.0066177 0)
(-0.00461383 -0.0236637 0)
(-0.00498298 -0.0362539 0)
(-0.0059158 -0.0456534 0)
(-0.00695653 -0.0552182 0)
(-0.00937521 -0.0693083 0)
(-0.0102048 -0.0971354 0)
(-0.0140118 -0.144305 0)
(-0.00380818 -0.178527 0)
(-0.00012998 0.0458447 0)
(-0.0016494 0.0574273 0)
(-0.00246762 0.0636356 0)
(-0.00198367 0.0703559 0)
(0.00102443 0.0781946 0)
(0.00590249 0.0833019 0)
(0.0114113 0.0817953 0)
(0.015554 0.0725774 0)
(0.0180369 0.0557901 0)
(0.0186862 0.0356827 0)
(0.018474 0.0147294 0)
(0.0171572 -0.00518018 0)
(0.0146934 -0.0216613 0)
(0.0107474 -0.0337654 0)
(0.00658047 -0.0430787 0)
(0.00311824 -0.0524735 0)
(-0.00177868 -0.066133 0)
(-0.00380743 -0.0943267 0)
(-0.011114 -0.144353 0)
(-0.00223977 -0.18721 0)
(0.000906437 0.0456039 0)
(0.00102851 0.0577309 0)
(0.00184017 0.0630325 0)
(0.00388104 0.0677937 0)
(0.00823797 0.0729762 0)
(0.0148257 0.076377 0)
(0.0223128 0.0750499 0)
(0.0289778 0.0674488 0)
(0.0335436 0.0533799 0)
(0.0354843 0.0354529 0)
(0.0352308 0.0162646 0)
(0.032788 -0.00202177 0)
(0.0280934 -0.0170934 0)
(0.021808 -0.0286491 0)
(0.0156258 -0.0381531 0)
(0.0104252 -0.0476982 0)
(0.00340299 -0.0611747 0)
(0.000981195 -0.0897229 0)
(-0.00959258 -0.14258 0)
(-0.000377004 -0.194136 0)
(0.00135602 0.0442692 0)
(0.00289172 0.0565008 0)
(0.0049147 0.0610388 0)
(0.00791133 0.064167 0)
(0.0126812 0.0669852 0)
(0.0194185 0.0684074 0)
(0.0272563 0.0665501 0)
(0.0347552 0.060108 0)
(0.0404269 0.0486981 0)
(0.043324 0.0338143 0)
(0.0431611 0.0175834 0)
(0.0402543 0.00206097 0)
(0.0348574 -0.0112931 0)
(0.02807 -0.0223339 0)
(0.0212908 -0.0319765 0)
(0.0152738 -0.0416949 0)
(0.00671845 -0.0549866 0)
(0.00488913 -0.0838581 0)
(-0.00922282 -0.139682 0)
(0.000927873 -0.199823 0)
(0.0016088 0.0417253 0)
(0.00405444 0.0541592 0)
(0.00687153 0.0581465 0)
(0.0104066 0.0600557 0)
(0.0152097 0.0611667 0)
(0.0214402 0.0610619 0)
(0.0286 0.0586218 0)
(0.0356281 0.0529551 0)
(0.041222 0.0437712 0)
(0.0443583 0.0318787 0)
(0.0444466 0.0189306 0)
(0.0420027 0.00614843 0)
(0.0371973 -0.00554031 0)
(0.0310749 -0.0159076 0)
(0.0244104 -0.0253937 0)
(0.0182272 -0.0350494 0)
(0.00859619 -0.0480023 0)
(0.00806133 -0.0769007 0)
(-0.00981076 -0.135759 0)
(0.00290661 -0.204666 0)
(0.00160635 0.0387293 0)
(0.00453117 0.0510954 0)
(0.00783225 0.0546678 0)
(0.0116813 0.0557274 0)
(0.0164168 0.0557289 0)
(0.0220888 0.0546499 0)
(0.028363 0.051891 0)
(0.0344969 0.0469212 0)
(0.0395313 0.039542 0)
(0.0426091 0.0302683 0)
(0.0432937 0.0198591 0)
(0.0413753 0.00944109 0)
(0.0374672 -0.000544941 0)
(0.0321584 -0.00993017 0)
(0.0258951 -0.0188848 0)
(0.0200251 -0.0282442 0)
(0.0095705 -0.040755 0)
(0.0108533 -0.0692775 0)
(-0.0108869 -0.13099 0)
(0.0054413 -0.208931 0)
(0.00136203 0.0358294 0)
(0.00437197 0.0478464 0)
(0.0079368 0.0509525 0)
(0.0119822 0.0513504 0)
(0.016657 0.0506272 0)
(0.0219101 0.0489703 0)
(0.0274695 0.0461073 0)
(0.0327996 0.0417489 0)
(0.0372179 0.0357883 0)
(0.0400784 0.0284799 0)
(0.0409976 0.0203504 0)
(0.0398332 0.0119554 0)
(0.0368309 0.00361441 0)
(0.0323651 -0.00457916 0)
(0.0266467 -0.0127257 0)
(0.021329 -0.0215471 0)
(0.0100586 -0.0335343 0)
(0.0136591 -0.0614892 0)
(-0.0119617 -0.125539 0)
(0.00935508 -0.213207 0)
(0.000779338 0.0332229 0)
(0.00351224 0.0442956 0)
(0.00717146 0.0468341 0)
(0.01137 0.0467556 0)
(0.0160702 0.0456179 0)
(0.0211205 0.0436989 0)
(0.0262631 0.0409172 0)
(0.0310929 0.0371452 0)
(0.0351234 0.032341 0)
(0.0378845 0.026631 0)
(0.0390606 0.0203174 0)
(0.0385277 0.0137049 0)
(0.0363019 0.00696756 0)
(0.0326097 0.000101615 0)
(0.0273611 -0.00696033 0)
(0.0226718 -0.014984 0)
(0.0103003 -0.0265953 0)
(0.0168363 -0.0542379 0)
(-0.0126929 -0.121167 0)
(0.0143399 -0.218172 0)
(-6.84778e-05 0.0315827 0)
(0.00213362 0.0414965 0)
(0.00584471 0.0433075 0)
(0.0100502 0.0424463 0)
(0.0148371 0.0408191 0)
(0.019885 0.0387025 0)
(0.0249221 0.0360642 0)
(0.0296058 0.0328405 0)
(0.0335564 0.029019 0)
(0.0364401 0.0246426 0)
(0.0379894 0.0198125 0)
(0.038111 0.0147982 0)
(0.0365473 0.0095946 0)
(0.0335445 0.00413288 0)
(0.0286594 -0.00158318 0)
(0.024524 -0.00866394 0)
(0.0110019 -0.0201418 0)
(0.0211564 -0.0480066 0)
(-0.0131858 -0.11908 0)
(0.0206512 -0.223447 0)
(-0.00280859 0.0303003 0)
(-0.00247005 0.036603 0)
(0.00191204 0.0376606 0)
(0.00714749 0.0368444 0)
(0.0125535 0.0355232 0)
(0.0180617 0.0336454 0)
(0.0234234 0.0313621 0)
(0.0283777 0.0287164 0)
(0.0326247 0.0257259 0)
(0.0360581 0.0222805 0)
(0.0382846 0.018784 0)
(0.0390475 0.0151803 0)
(0.0382677 0.011582 0)
(0.0361036 0.00762056 0)
(0.0316079 0.00339612 0)
(0.0281564 -0.00278729 0)
(0.0141979 -0.0148585 0)
(0.0275722 -0.0432907 0)
(-0.0134063 -0.117527 0)
(0.0290607 -0.2243 0)
(-0.00572205 0.045613 0)
(-0.00624821 0.043297 0)
(-0.000222863 0.0395276 0)
(0.00471342 0.0352522 0)
(0.0109601 0.0321709 0)
(0.0174546 0.0294639 0)
(0.0238252 0.0270109 0)
(0.0297911 0.0246366 0)
(0.0350226 0.022299 0)
(0.0393142 0.0199886 0)
(0.0423599 0.0177208 0)
(0.0444128 0.0153518 0)
(0.0449444 0.0132588 0)
(0.0446931 0.0107258 0)
(0.0417426 0.00871076 0)
(0.0402148 0.00364973 0)
(0.0298969 -0.00904122 0)
(0.0426175 -0.0391109 0)
(-0.00373872 -0.10729 0)
(0.0450711 -0.203701 0)
(-0.00390328 0.0209098 0)
(-0.0114949 0.00968176 0)
(0.00237933 0.0130437 0)
(0.0120274 0.0150217 0)
(0.0227412 0.0153716 0)
(0.0330295 0.0150218 0)
(0.0424787 0.0144647 0)
(0.0515003 0.0137465 0)
(0.059339 0.0130365 0)
(0.0669806 0.0121748 0)
(0.0727993 0.011426 0)
(0.0790952 0.0104589 0)
(0.0827883 0.00968299 0)
(0.0878481 0.00848901 0)
(0.089454 0.00680905 0)
(0.0930868 0.00233748 0)
(0.0897606 -0.0063527 0)
(0.0938923 -0.0302323 0)
(0.0469525 -0.0766527 0)
(0.0835009 -0.152858 0)
(0.0515127 0.0995944 0)
(0.0586233 0.061938 0)
(0.0887515 0.0386793 0)
(0.109608 0.0278322 0)
(0.125995 0.0218383 0)
(0.140782 0.0179035 0)
(0.153897 0.0151882 0)
(0.166806 0.0130137 0)
(0.177829 0.0115622 0)
(0.189152 0.0100346 0)
(0.198148 0.00934377 0)
(0.207957 0.00797589 0)
(0.215046 0.00787129 0)
(0.223 0.00616338 0)
(0.227883 0.00653655 0)
(0.232683 0.0031711 0)
(0.230919 0.000337113 0)
(0.2218 -0.00643835 0)
(0.176923 -0.0199086 0)
(0.16765 -0.116657 0)
)
;

boundaryField
{
    movingWall
    {
        type            fixedValue;
        value           uniform (1 0 0);
    }
    fixedWalls
    {
        type            noSlip;
    }
    frontAndBack
    {
        type            empty;
    }
}


// ************************************************************************* //
