/*--------------------------------*- C++ -*----------------------------------*\
| =========                 |                                                 |
| \\      /  F ield         | OpenFOAM: The Open Source CFD Toolbox           |
|  \\    /   O peration     | Version:  4.1                                   |
|   \\  /    A nd           | Web:      www.OpenFOAM.org                      |
|    \\/     M anipulation  |                                                 |
\*---------------------------------------------------------------------------*/
FoamFile
{
    version     2.0;
    format      ascii;
    class       volScalarField;
    location    "9";
    object      epsilon;
}
// * * * * * * * * * * * * * * * * * * * * * * * * * * * * * * * * * * * * * //

dimensions      [0 2 -3 0 0 0 0];

internalField   nonuniform List<scalar> 
400
(
0.000365039
0.00117981
0.003567
0.00705597
0.0101544
0.012271
0.0134811
0.0140232
0.014177
0.0139369
0.013276
0.0124639
0.0114259
0.0104706
0.00952462
0.00869689
0.00800339
0.00732516
0.00574497
0.00441063
0.000844138
0.0020641
0.00422325
0.00565997
0.00604793
0.00557983
0.00478332
0.0039911
0.00331492
0.00282891
0.00259079
0.00252135
0.0027452
0.00309053
0.00367104
0.00457665
0.00598419
0.00782662
0.00984683
0.0106426
0.00197098
0.00293558
0.00365796
0.00367147
0.00281404
0.00213838
0.00157063
0.00125359
0.00107653
0.000999719
0.00097937
0.00102508
0.00117493
0.00141293
0.00188873
0.00271306
0.00418734
0.00678392
0.011386
0.0168822
0.0028984
0.00283009
0.00287341
0.00218616
0.00136159
0.000959566
0.000674212
0.000540064
0.000450574
0.000408074
0.00039106
0.000389876
0.000448709
0.00055721
0.000799695
0.00132349
0.00250855
0.00516899
0.0114445
0.0212432
0.00356138
0.00256694
0.00217164
0.00128041
0.000742949
0.000494785
0.000337695
0.000262513
0.000208262
0.000182557
0.00017087
0.000168661
0.000191606
0.0002453
0.000371139
0.000688447
0.00156933
0.00389775
0.0105848
0.0246465
0.00421341
0.00224818
0.00160183
0.000805529
0.000450378
0.000286461
0.000191028
0.000144614
0.000111854
9.63868e-05
8.93656e-05
8.78112e-05
9.91708e-05
0.000127494
0.000195498
0.000379338
0.00100235
0.00305837
0.00991382
0.0272892
0.00490877
0.00194661
0.00121006
0.00056321
0.000304941
0.000187771
0.000123817
9.21549e-05
7.03163e-05
5.98586e-05
5.50191e-05
5.38044e-05
6.06057e-05
7.80644e-05
0.000119479
0.000227945
0.000640937
0.0023466
0.00918508
0.0295114
0.00572083
0.00173144
0.000947452
0.000429601
0.000230032
0.00013926
9.07778e-05
6.65428e-05
5.01754e-05
4.22022e-05
3.85468e-05
3.76536e-05
4.27178e-05
5.53135e-05
8.46783e-05
0.000155595
0.00045273
0.00190105
0.00865353
0.0313854
0.0064955
0.0015652
0.000790778
0.000362312
0.00019371
0.000116008
7.4856e-05
5.36417e-05
3.99659e-05
3.32948e-05
3.04316e-05
2.99161e-05
3.41471e-05
4.42712e-05
6.75683e-05
0.000120038
0.000322565
0.00151048
0.00822979
0.0331253
0.00742064
0.001512
0.000689517
0.000321008
0.000176601
0.000106633
6.72434e-05
4.68849e-05
3.50372e-05
2.91124e-05
2.67012e-05
2.67431e-05
3.03078e-05
3.90867e-05
5.89256e-05
0.000104434
0.000262069
0.00131347
0.00795518
0.0347812
0.0080956
0.00159654
0.000648705
0.000313676
0.000177977
0.000108204
6.82153e-05
4.72432e-05
3.52212e-05
2.8789e-05
2.58055e-05
2.60462e-05
2.90638e-05
3.71875e-05
5.52057e-05
9.83158e-05
0.000234531
0.00118772
0.00781402
0.0365312
0.00872584
0.0018482
0.000666387
0.000321407
0.000185336
0.000114304
7.26501e-05
5.00637e-05
3.73015e-05
3.04593e-05
2.72459e-05
2.74962e-05
2.9821e-05
3.71225e-05
5.45058e-05
9.71826e-05
0.000229256
0.00114722
0.00775471
0.0384683
0.0088296
0.00227266
0.000735399
0.000345603
0.000201979
0.000127338
8.23116e-05
5.70406e-05
4.27908e-05
3.51592e-05
3.1454e-05
3.19538e-05
3.46709e-05
4.26011e-05
6.0477e-05
0.000105127
0.000239817
0.00117255
0.00795197
0.0408199
0.00865344
0.00281907
0.000906379
0.000402283
0.000232165
0.000150445
0.000101653
7.18128e-05
5.44063e-05
4.52012e-05
4.06536e-05
4.14864e-05
4.48771e-05
5.42048e-05
7.42082e-05
0.000125806
0.000280591
0.00133729
0.00913345
0.0438144
0.00804182
0.00330292
0.0011583
0.000511157
0.000285716
0.000183448
0.000127093
9.45654e-05
7.48466e-05
6.50632e-05
5.96993e-05
6.09026e-05
6.51042e-05
7.64319e-05
0.000100557
0.000166509
0.000361493
0.00163871
0.0106524
0.0481562
0.00698285
0.00358557
0.00160046
0.000760141
0.000407698
0.000252442
0.000173998
0.000131155
0.000105661
9.38258e-05
8.87904e-05
9.09633e-05
9.72544e-05
0.000113809
0.000151087
0.000256591
0.000554185
0.00233162
0.013496
0.054278
0.00498093
0.00337367
0.0018495
0.00102522
0.000614941
0.000399324
0.00027962
0.000213542
0.000173828
0.000154665
0.000148755
0.000152564
0.000166547
0.000208394
0.000299042
0.000533085
0.00111966
0.00403944
0.0186727
0.0635386
0.00368379
0.0028956
0.0022087
0.00156995
0.0011376
0.0008633
0.000682883
0.000590509
0.000533526
0.000535265
0.000550251
0.000601241
0.000669188
0.000860649
0.00117563
0.00196506
0.00363195
0.00967788
0.0306484
0.0789506
0.00441085
0.00602783
0.00740442
0.00757984
0.00739012
0.00728613
0.00723361
0.00737517
0.0076116
0.00810091
0.00849072
0.00931024
0.00998433
0.0111928
0.0124905
0.0165828
0.0226222
0.0375022
0.0702669
0.110283
0.0454059
0.0895027
0.121493
0.133526
0.135412
0.135285
0.134602
0.134773
0.135041
0.136066
0.136968
0.139219
0.140992
0.144214
0.148186
0.151605
0.155557
0.160493
0.176808
0.152339
)
;

boundaryField
{
    movingWall
    {
        Cmu             0.09;
        kappa           0.41;
        E               9.8;
        type            epsilonWallFunction;
        value           nonuniform List<scalar> 
20
(
0.0454059
0.0895027
0.121493
0.133526
0.135412
0.135285
0.134602
0.134773
0.135041
0.136066
0.136968
0.139219
0.140992
0.144214
0.148186
0.151605
0.155557
0.160493
0.176808
0.152339
)
;
    }
    fixedWalls
    {
        Cmu             0.09;
        kappa           0.41;
        E               9.8;
        type            epsilonWallFunction;
        value           nonuniform List<scalar> 
60
(
0.000365039
0.000844138
0.00197098
0.0028984
0.00356138
0.00421341
0.00490877
0.00572083
0.0064955
0.00742064
0.0080956
0.00872584
0.0088296
0.00865344
0.00804182
0.00698285
0.00498093
0.00368379
0.00441085
0.0454059
0.00441063
0.0106426
0.0168822
0.0212432
0.0246465
0.0272892
0.0295114
0.0313854
0.0331253
0.0347812
0.0365312
0.0384683
0.0408199
0.0438144
0.0481562
0.054278
0.0635386
0.0789506
0.110283
0.152339
0.000365039
0.00117981
0.003567
0.00705597
0.0101544
0.012271
0.0134811
0.0140232
0.014177
0.0139369
0.013276
0.0124639
0.0114259
0.0104706
0.00952462
0.00869689
0.00800339
0.00732516
0.00574497
0.00441063
)
;
    }
    frontAndBack
    {
        type            empty;
    }
}


// ************************************************************************* //
