/*--------------------------------*- C++ -*----------------------------------*\
| =========                 |                                                 |
| \\      /  F ield         | OpenFOAM: The Open Source CFD Toolbox           |
|  \\    /   O peration     | Version:  4.1                                   |
|   \\  /    A nd           | Web:      www.OpenFOAM.org                      |
|    \\/     M anipulation  |                                                 |
\*---------------------------------------------------------------------------*/
FoamFile
{
    version     2.0;
    format      ascii;
    class       volScalarField;
    location    "9";
    object      k;
}
// * * * * * * * * * * * * * * * * * * * * * * * * * * * * * * * * * * * * * //

dimensions      [0 2 -2 0 0 0 0];

internalField   nonuniform List<scalar> 
400
(
0.000173112
0.000378449
0.000791253
0.0012468
0.0015892
0.00180295
0.00191957
0.00197067
0.00198504
0.00196253
0.00189998
0.00182168
0.00171907
0.00162187
0.00152265
0.0014331
0.00135587
0.00127814
0.001087
0.000911385
0.000302737
0.000651081
0.00100971
0.00117949
0.00122927
0.00111398
0.00101246
0.000905361
0.000837147
0.000797237
0.000782102
0.000790747
0.000855077
0.000930704
0.00105538
0.00120813
0.001398
0.00159709
0.00171912
0.00163958
0.000532816
0.000874026
0.000968126
0.000959699
0.000735114
0.000625704
0.000519878
0.0004648
0.000426335
0.000407813
0.000400665
0.000400389
0.000433361
0.000482154
0.000584438
0.000749557
0.00100745
0.00139004
0.00189914
0.00223007
0.000688997
0.000871516
0.000865224
0.0006657
0.000471891
0.000382551
0.000303603
0.000265099
0.000227506
0.000209156
0.000198831
0.000195693
0.000204936
0.000233526
0.000290712
0.000413832
0.000661396
0.00109411
0.00186838
0.00259923
0.000790412
0.000852152
0.000722059
0.000463647
0.000322433
0.000252451
0.0001946
0.000167145
0.000144639
0.000134433
0.000129345
0.000127937
0.00013178
0.000147492
0.000177831
0.000253978
0.000450226
0.000871549
0.00173584
0.00286991
0.000884147
0.000807203
0.000587036
0.000345314
0.000236705
0.000181282
0.000143246
0.000126277
0.000115163
0.000109928
0.00010711
0.000106342
0.000109226
0.0001203
0.000139149
0.000181873
0.000321028
0.000715106
0.00165009
0.00307155
0.000978918
0.000743958
0.000488317
0.000275928
0.000187522
0.000144716
0.000121088
0.000110726
0.000104213
9.96722e-05
9.70287e-05
9.62576e-05
9.90223e-05
0.000109334
0.00012586
0.000152373
0.000244518
0.000585315
0.00155556
0.00323612
0.00108409
0.000674857
0.000418105
0.000235642
0.000162833
0.000128259
0.000111344
0.000103491
9.73178e-05
9.15496e-05
8.83377e-05
8.74442e-05
9.08578e-05
0.000101731
0.000120124
0.00014125
0.000205421
0.000502246
0.00149974
0.00337171
0.00117987
0.000628926
0.0003771
0.000214403
0.00014925
0.000120339
0.000106709
9.97966e-05
9.32281e-05
8.68865e-05
8.37852e-05
8.32649e-05
8.69864e-05
9.6698e-05
0.000115091
0.000137283
0.00018055
0.000427546
0.00145288
0.0034952
0.0012894
0.000589428
0.000348967
0.000202805
0.000147007
0.000120536
0.000106981
9.94125e-05
9.26369e-05
8.63998e-05
8.2711e-05
8.2132e-05
8.56052e-05
9.46087e-05
0.000112324
0.000136359
0.000168938
0.000388386
0.00143005
0.00361073
0.00136644
0.000592991
0.000340127
0.00020389
0.000148726
0.00012226
0.000108297
0.000100258
9.36493e-05
8.78874e-05
8.4038e-05
8.29627e-05
8.5513e-05
9.4025e-05
0.000111167
0.000136368
0.000163776
0.000357124
0.00141899
0.00373086
0.00143647
0.000614152
0.000344586
0.000209164
0.000153898
0.000126694
0.000111414
0.000102473
9.59996e-05
9.08418e-05
8.69641e-05
8.63087e-05
8.84589e-05
9.59796e-05
0.00011204
0.000139277
0.00016305
0.000344669
0.00141535
0.00386161
0.00144784
0.000657853
0.000359754
0.000220778
0.000161997
0.00013262
0.000115728
0.000105982
9.95618e-05
9.53369e-05
9.18212e-05
9.21828e-05
9.45254e-05
0.000102441
0.000118792
0.000143496
0.000165417
0.000341581
0.00143915
0.00401742
0.00142852
0.000732933
0.000397091
0.000245983
0.000178472
0.000143915
0.000123789
0.000112069
0.000104756
0.000101797
9.97884e-05
0.000101021
0.000104455
0.000114032
0.000128876
0.000150097
0.000171472
0.000356155
0.00155326
0.00421155
0.0013604
0.000800646
0.000443706
0.000278401
0.000199652
0.000158999
0.000135103
0.00012188
0.000113873
0.000111699
0.000112341
0.000115168
0.000119866
0.000131284
0.000142952
0.000159189
0.00018253
0.000394364
0.00171521
0.00448537
0.00123817
0.000866848
0.000536598
0.000344316
0.00024165
0.000186979
0.000155295
0.000138144
0.000127151
0.00012548
0.000126706
0.000131158
0.000135997
0.000146862
0.000155001
0.000169305
0.00020328
0.000477991
0.00200086
0.00485786
0.000988457
0.000845656
0.000599727
0.000430487
0.000317436
0.00024403
0.000198593
0.000172371
0.000155064
0.000147172
0.000145298
0.000146751
0.000150544
0.000159477
0.000170251
0.000196368
0.000269161
0.000678159
0.0024772
0.00539577
0.000808337
0.000787589
0.0006853
0.000549644
0.000444054
0.000364485
0.000301941
0.000262414
0.000233818
0.000219047
0.000208975
0.00020997
0.000214212
0.000231387
0.000267751
0.000362015
0.000567116
0.0012587
0.00342073
0.00623636
0.000911452
0.00103545
0.00113439
0.00110622
0.00103799
0.000995682
0.000949374
0.000951285
0.000962245
0.000996768
0.00103661
0.00112577
0.0011999
0.0013505
0.00149044
0.0018587
0.00235114
0.00348836
0.00592232
0.00779289
0.00431295
0.00678044
0.0083125
0.00885268
0.00893571
0.00893009
0.00889992
0.00890742
0.00891923
0.00896433
0.0090039
0.00910236
0.00917944
0.00931887
0.00948919
0.0096346
0.00980131
0.0100076
0.0106748
0.00966571
)
;

boundaryField
{
    movingWall
    {
        type            kqRWallFunction;
        value           nonuniform List<scalar> 
20
(
0.00431295
0.00678044
0.0083125
0.00885268
0.00893571
0.00893009
0.00889992
0.00890742
0.00891923
0.00896433
0.0090039
0.00910236
0.00917944
0.00931887
0.00948919
0.0096346
0.00980131
0.0100076
0.0106748
0.00966571
)
;
    }
    fixedWalls
    {
        type            kqRWallFunction;
        value           nonuniform List<scalar> 
60
(
0.000173112
0.000302737
0.000532816
0.000688997
0.000790412
0.000884147
0.000978918
0.00108409
0.00117987
0.0012894
0.00136644
0.00143647
0.00144784
0.00142852
0.0013604
0.00123817
0.000988457
0.000808337
0.000911452
0.00431295
0.000911385
0.00163958
0.00223007
0.00259923
0.00286991
0.00307155
0.00323612
0.00337171
0.0034952
0.00361073
0.00373086
0.00386161
0.00401742
0.00421155
0.00448537
0.00485786
0.00539577
0.00623636
0.00779289
0.00966571
0.000173112
0.000378449
0.000791253
0.0012468
0.0015892
0.00180295
0.00191957
0.00197067
0.00198504
0.00196253
0.00189998
0.00182168
0.00171907
0.00162187
0.00152265
0.0014331
0.00135587
0.00127814
0.001087
0.000911385
)
;
    }
    frontAndBack
    {
        type            empty;
    }
}


// ************************************************************************* //
