/*--------------------------------*- C++ -*----------------------------------*\
| =========                 |                                                 |
| \\      /  F ield         | OpenFOAM: The Open Source CFD Toolbox           |
|  \\    /   O peration     | Version:  4.1                                   |
|   \\  /    A nd           | Web:      www.OpenFOAM.org                      |
|    \\/     M anipulation  |                                                 |
\*---------------------------------------------------------------------------*/
FoamFile
{
    version     2.0;
    format      ascii;
    class       volScalarField;
    location    "9";
    object      nut;
}
// * * * * * * * * * * * * * * * * * * * * * * * * * * * * * * * * * * * * * //

dimensions      [0 2 -1 0 0 0 0];

internalField   nonuniform List<scalar> 
400
(
7.38855e-06
1.09256e-05
1.57968e-05
1.98281e-05
2.23845e-05
2.38414e-05
2.45996e-05
2.49243e-05
2.50148e-05
2.48719e-05
2.44723e-05
2.39624e-05
2.32777e-05
2.261e-05
2.19075e-05
2.12537e-05
2.06729e-05
2.00717e-05
1.85104e-05
1.69491e-05
9.77146e-06
1.84834e-05
2.17265e-05
2.21215e-05
2.24868e-05
2.00158e-05
1.92872e-05
1.84839e-05
1.90271e-05
2.02208e-05
2.12489e-05
2.23195e-05
2.39706e-05
2.52251e-05
2.7307e-05
2.87025e-05
2.93936e-05
2.93309e-05
2.70121e-05
2.27332e-05
1.29633e-05
2.34206e-05
2.30604e-05
2.25773e-05
1.72831e-05
1.64777e-05
1.54872e-05
1.55102e-05
1.51957e-05
1.49722e-05
1.47522e-05
1.40749e-05
1.43857e-05
1.48079e-05
1.62761e-05
1.86377e-05
2.18148e-05
2.56341e-05
2.85095e-05
2.65125e-05
1.47407e-05
2.41542e-05
2.34478e-05
1.82439e-05
1.4719e-05
1.37261e-05
1.23043e-05
1.17115e-05
1.03386e-05
9.6482e-06
9.09845e-06
8.84033e-06
8.42393e-06
8.80831e-06
9.51137e-06
1.16458e-05
1.56944e-05
2.08429e-05
2.74523e-05
2.86228e-05
1.57881e-05
2.54601e-05
2.16073e-05
1.51101e-05
1.2594e-05
1.15926e-05
1.00927e-05
9.57805e-06
9.04074e-06
8.90963e-06
8.812e-06
8.73408e-06
8.157e-06
7.98143e-06
7.66868e-06
8.43263e-06
1.16249e-05
1.75393e-05
2.56198e-05
3.00762e-05
1.66978e-05
2.60841e-05
1.93622e-05
1.33227e-05
1.11964e-05
1.03249e-05
9.66737e-06
9.92379e-06
1.06714e-05
1.12835e-05
1.15539e-05
1.15905e-05
1.08271e-05
1.02161e-05
8.91371e-06
7.84788e-06
9.25355e-06
1.50485e-05
2.47181e-05
3.11149e-05
1.75696e-05
2.55895e-05
1.77353e-05
1.21665e-05
1.03784e-05
1.0038e-05
1.06578e-05
1.19736e-05
1.39006e-05
1.4937e-05
1.54003e-05
1.54987e-05
1.45611e-05
1.37815e-05
1.19324e-05
9.1671e-06
8.39552e-06
1.31396e-05
2.371e-05
3.19375e-05
1.84891e-05
2.36733e-05
1.66057e-05
1.16327e-05
1.03738e-05
1.06314e-05
1.22912e-05
1.4486e-05
1.69878e-05
1.78739e-05
1.82199e-05
1.82767e-05
1.73924e-05
1.68392e-05
1.53366e-05
1.15405e-05
8.38866e-06
1.19421e-05
2.33927e-05
3.25998e-05
1.92885e-05
2.27443e-05
1.61846e-05
1.14189e-05
1.03494e-05
1.12349e-05
1.36905e-05
1.67098e-05
1.95725e-05
2.04066e-05
2.07612e-05
2.08574e-05
1.9943e-05
1.90089e-05
1.76435e-05
1.41306e-05
9.09541e-06
1.08917e-05
2.30842e-05
3.31915e-05
2.01638e-05
2.06801e-05
1.58952e-05
1.15314e-05
1.10135e-05
1.22626e-05
1.53182e-05
1.89711e-05
2.20435e-05
2.30776e-05
2.30588e-05
2.27016e-05
2.17615e-05
2.06099e-05
1.92701e-05
1.6024e-05
9.8013e-06
1.03359e-05
2.31364e-05
3.37356e-05
2.07575e-05
1.98225e-05
1.60501e-05
1.19276e-05
1.11854e-05
1.24326e-05
1.54738e-05
1.91486e-05
2.24103e-05
2.41473e-05
2.4631e-05
2.37828e-05
2.2644e-05
2.1396e-05
2.0147e-05
1.70234e-05
1.0293e-05
9.66419e-06
2.31915e-05
3.42922e-05
2.12829e-05
1.83673e-05
1.60366e-05
1.22507e-05
1.15014e-05
1.26383e-05
1.53774e-05
1.88771e-05
2.22359e-05
2.43834e-05
2.49816e-05
2.43825e-05
2.36159e-05
2.23338e-05
2.07276e-05
1.79644e-05
1.04367e-05
9.31967e-06
2.32491e-05
3.48879e-05
2.13671e-05
1.71382e-05
1.58391e-05
1.26934e-05
1.16936e-05
1.24309e-05
1.46439e-05
1.77225e-05
2.08486e-05
2.32662e-05
2.41242e-05
2.39343e-05
2.31939e-05
2.21702e-05
2.10004e-05
1.76282e-05
1.02689e-05
8.95567e-06
2.34412e-05
3.55847e-05
2.12241e-05
1.715e-05
1.56572e-05
1.3537e-05
1.23476e-05
1.23902e-05
1.3567e-05
1.57402e-05
1.8153e-05
2.0633e-05
2.20447e-05
2.2139e-05
2.18816e-05
2.15904e-05
2.01435e-05
1.6117e-05
9.43099e-06
8.5368e-06
2.37736e-05
3.64342e-05
2.07119e-05
1.74673e-05
1.52972e-05
1.36468e-05
1.25561e-05
1.24027e-05
1.29257e-05
1.41375e-05
1.55924e-05
1.72586e-05
1.90261e-05
1.96006e-05
1.98622e-05
2.02951e-05
1.82898e-05
1.36972e-05
8.29486e-06
8.54152e-06
2.4856e-05
3.75999e-05
1.97594e-05
1.88612e-05
1.61918e-05
1.40366e-05
1.28907e-05
1.24643e-05
1.24743e-05
1.30955e-05
1.37709e-05
1.51032e-05
1.62732e-05
1.70202e-05
1.71155e-05
1.70565e-05
1.43115e-05
1.00541e-05
6.71083e-06
8.81912e-06
2.66976e-05
3.91299e-05
1.76542e-05
1.90778e-05
1.75023e-05
1.62684e-05
1.47476e-05
1.34216e-05
1.26941e-05
1.25224e-05
1.24492e-05
1.26038e-05
1.2773e-05
1.27044e-05
1.22472e-05
1.09839e-05
8.72348e-06
6.51009e-06
5.82345e-06
1.02467e-05
2.95772e-05
4.12393e-05
1.59637e-05
1.92798e-05
1.91367e-05
1.73189e-05
1.56e-05
1.38497e-05
1.20155e-05
1.04951e-05
9.2224e-06
8.0677e-06
7.1428e-06
6.59947e-06
6.17138e-06
5.59877e-06
5.48825e-06
6.00235e-06
7.96978e-06
1.47336e-05
3.43616e-05
4.43353e-05
1.69507e-05
1.60082e-05
1.56415e-05
1.453e-05
1.31212e-05
1.22458e-05
1.1214e-05
1.10431e-05
1.09481e-05
1.10382e-05
1.13902e-05
1.22513e-05
1.29781e-05
1.46653e-05
1.60063e-05
1.87501e-05
2.19921e-05
2.92031e-05
4.49237e-05
4.95602e-05
3.68706e-05
4.62298e-05
5.11863e-05
5.28232e-05
5.30693e-05
5.30523e-05
5.29619e-05
5.2984e-05
5.3019e-05
5.31529e-05
5.32702e-05
5.35613e-05
5.37874e-05
5.41952e-05
5.46882e-05
5.51056e-05
5.55805e-05
5.61624e-05
5.80046e-05
5.5195e-05
)
;

boundaryField
{
    movingWall
    {
        type            nutkWallFunction;
        Cmu             0.09;
        kappa           0.41;
        E               9.8;
        value           nonuniform List<scalar> 
20
(
0
0
6.48512e-07
9.17562e-07
9.58069e-07
9.5533e-07
9.40633e-07
9.4429e-07
9.50042e-07
9.71979e-07
9.91174e-07
1.03872e-06
1.07574e-06
1.14224e-06
1.22271e-06
1.29075e-06
1.36804e-06
1.46262e-06
1.76111e-06
1.30523e-06
)
;
    }
    fixedWalls
    {
        type            nutkWallFunction;
        Cmu             0.09;
        kappa           0.41;
        E               9.8;
        value           nonuniform List<scalar> 
60
(
0
0
0
0
0
0
0
0
0
0
0
0
0
0
0
0
0
0
0
0
0
0
0
0
0
0
0
0
0
0
0
0
0
0
0
0
0
0
3.80017e-07
1.30523e-06
0
0
0
0
0
0
0
0
0
0
0
0
0
0
0
0
0
0
0
0
)
;
    }
    frontAndBack
    {
        type            empty;
    }
}


// ************************************************************************* //
