/*--------------------------------*- C++ -*----------------------------------*\
| =========                 |                                                 |
| \\      /  F ield         | OpenFOAM: The Open Source CFD Toolbox           |
|  \\    /   O peration     | Version:  4.1                                   |
|   \\  /    A nd           | Web:      www.OpenFOAM.org                      |
|    \\/     M anipulation  |                                                 |
\*---------------------------------------------------------------------------*/
FoamFile
{
    version     2.0;
    format      ascii;
    class       volScalarField;
    location    "9";
    object      p;
}
// * * * * * * * * * * * * * * * * * * * * * * * * * * * * * * * * * * * * * //

dimensions      [0 2 -2 0 0 0 0];

internalField   nonuniform List<scalar> 
400
(
7.12643e-08
-0.000118824
-0.000309604
-0.000987119
-0.00239754
-0.00445158
-0.00676798
-0.00894862
-0.0107078
-0.0119054
-0.0124208
-0.0121482
-0.0110151
-0.00896319
-0.00596484
-0.00214227
0.00214844
0.00608276
0.00860836
0.00934817
0.000179407
-2.41333e-05
-0.000475619
-0.00153135
-0.00327921
-0.00550681
-0.00783209
-0.00993665
-0.0116428
-0.0127906
-0.0132844
-0.0130725
-0.0121049
-0.0102871
-0.00759323
-0.00406209
4.93023e-05
0.00411349
0.00700861
0.00818675
0.000123421
-0.000341084
-0.00128028
-0.00288604
-0.00508566
-0.00751516
-0.00982555
-0.0118461
-0.013449
-0.0144701
-0.0148863
-0.0146769
-0.0138194
-0.0122758
-0.0100074
-0.00700156
-0.00332856
0.000676997
0.00395595
0.00559366
-0.000569676
-0.00131429
-0.0027657
-0.00492629
-0.00748598
-0.0100119
-0.0122381
-0.0140211
-0.0152898
-0.0160676
-0.0163606
-0.0161532
-0.0154282
-0.0141685
-0.0123521
-0.00994947
-0.00692803
-0.0033216
2.71646e-05
0.00183756
-0.00202706
-0.00299371
-0.00480886
-0.0073096
-0.00997138
-0.0123572
-0.0142997
-0.0157707
-0.0167851
-0.0173837
-0.0175807
-0.0173781
-0.0167717
-0.0157525
-0.0143101
-0.0124277
-0.0100675
-0.00710662
-0.00401678
-0.00225005
-0.00409721
-0.00513499
-0.00708258
-0.00963542
-0.012158
-0.014271
-0.015911
-0.0171191
-0.0179494
-0.0184327
-0.0185818
-0.0184033
-0.0178966
-0.0170621
-0.0158994
-0.0144094
-0.0126012
-0.0102962
-0.00775056
-0.00607951
-0.00632733
-0.00734389
-0.00924137
-0.0116552
-0.0139215
-0.0157457
-0.0171261
-0.0181455
-0.018851
-0.0192646
-0.019395
-0.0192457
-0.0188193
-0.0181242
-0.0171704
-0.0159571
-0.0145521
-0.0127868
-0.0108186
-0.00932776
-0.00832273
-0.00925336
-0.0110138
-0.0132311
-0.0152366
-0.0168151
-0.0180041
-0.0188932
-0.0195138
-0.0198813
-0.0200016
-0.019879
-0.0195174
-0.0189259
-0.0181263
-0.0171021
-0.0159827
-0.0146007
-0.0131514
-0.0118494
-0.00979904
-0.0106617
-0.0122703
-0.0143114
-0.0161123
-0.0175163
-0.0185801
-0.0193844
-0.0199495
-0.0202862
-0.0203999
-0.0202961
-0.0199809
-0.0194583
-0.0187673
-0.0178539
-0.0169464
-0.0157948
-0.0147212
-0.013616
-0.0106722
-0.0114507
-0.0129503
-0.0148746
-0.016553
-0.0178662
-0.0188681
-0.0196288
-0.0201641
-0.020484
-0.0205941
-0.0204995
-0.0202108
-0.0197213
-0.0190983
-0.0182186
-0.0174735
-0.0163785
-0.0156377
-0.014619
-0.0108946
-0.0116309
-0.0130604
-0.0149227
-0.0165672
-0.0178763
-0.0188775
-0.0196323
-0.0201621
-0.0204784
-0.020588
-0.0204929
-0.0202093
-0.0197213
-0.0191169
-0.0182178
-0.0175603
-0.0163788
-0.0159594
-0.0148531
-0.0104881
-0.0112154
-0.0126161
-0.0144651
-0.0161651
-0.017542
-0.0186002
-0.0193907
-0.0199431
-0.0202713
-0.0203841
-0.0202809
-0.0199797
-0.0194677
-0.0188121
-0.017894
-0.0171439
-0.0158967
-0.0156977
-0.0143239
-0.00959709
-0.0103193
-0.0117025
-0.013532
-0.0153528
-0.016858
-0.0180285
-0.0189
-0.0195073
-0.0198655
-0.0199873
-0.0198678
-0.0195278
-0.0189537
-0.0182016
-0.0172058
-0.0162641
-0.0149769
-0.0148102
-0.0131318
-0.00838975
-0.00905997
-0.0103928
-0.0121792
-0.0141109
-0.0157905
-0.0171312
-0.0181391
-0.0188432
-0.0192571
-0.019398
-0.0192574
-0.0188569
-0.0181821
-0.0172862
-0.0161327
-0.0149577
-0.0136018
-0.0133652
-0.0114744
-0.00710428
-0.00763912
-0.00881244
-0.0104925
-0.0124609
-0.0143215
-0.0158831
-0.0170888
-0.0179423
-0.0184461
-0.0186212
-0.0184583
-0.0179767
-0.0171644
-0.0160738
-0.0146892
-0.0132609
-0.0117648
-0.0114332
-0.00939862
-0.00595086
-0.00619465
-0.00707486
-0.00853851
-0.0104464
-0.0124491
-0.0142616
-0.0157177
-0.0167772
-0.0174163
-0.0176502
-0.0174731
-0.0169063
-0.0159375
-0.0146161
-0.0129529
-0.0112266
-0.00946906
-0.00896842
-0.00653779
-0.00516426
-0.00500204
-0.00541549
-0.00650827
-0.00823754
-0.0102902
-0.0123277
-0.0140558
-0.0153684
-0.0161965
-0.0165433
-0.0163988
-0.0157722
-0.0146539
-0.0130913
-0.0111111
-0.00896644
-0.00670507
-0.0055588
-0.00132017
-0.00464817
-0.00401115
-0.00390918
-0.00456522
-0.00606648
-0.00811545
-0.0103124
-0.0122571
-0.0137917
-0.0148164
-0.0153
-0.0152224
-0.014598
-0.0134129
-0.0116667
-0.00935595
-0.00660119
-0.003346
-0.000201147
0.00904402
-0.00580167
-0.00383845
-0.00302613
-0.00322332
-0.00451476
-0.00655655
-0.00885136
-0.010976
-0.0126806
-0.0138645
-0.0144684
-0.014491
-0.013891
-0.0126457
-0.0106937
-0.00793115
-0.00422796
0.000900795
0.00784396
0.0250173
-0.000970338
0.00068408
-0.000266117
-0.00158418
-0.00332068
-0.00553057
-0.00792385
-0.0101986
-0.0120303
-0.0133123
-0.0139529
-0.0139663
-0.0132929
-0.0119559
-0.00978834
-0.0066312
-0.00153798
0.00619348
0.01771
0.0366606
)
;

boundaryField
{
    movingWall
    {
        type            zeroGradient;
    }
    fixedWalls
    {
        type            zeroGradient;
    }
    frontAndBack
    {
        type            empty;
    }
}


// ************************************************************************* //
