/*--------------------------------*- C++ -*----------------------------------*\
| =========                 |                                                 |
| \\      /  F ield         | OpenFOAM: The Open Source CFD Toolbox           |
|  \\    /   O peration     | Version:  4.1                                   |
|   \\  /    A nd           | Web:      www.OpenFOAM.org                      |
|    \\/     M anipulation  |                                                 |
\*---------------------------------------------------------------------------*/
FoamFile
{
    version     2.0;
    format      ascii;
    class       surfaceScalarField;
    location    "9";
    object      phi;
}
// * * * * * * * * * * * * * * * * * * * * * * * * * * * * * * * * * * * * * //

dimensions      [0 3 -1 0 0 0 0];

internalField   nonuniform List<scalar> 
760
(
-5.03745e-08
5.03675e-08
-5.94905e-07
5.4453e-07
-1.65746e-06
1.06256e-06
-3.06007e-06
1.40261e-06
-4.52458e-06
1.46451e-06
-5.8936e-06
1.36902e-06
-7.06466e-06
1.17106e-06
-8.00189e-06
9.3723e-07
-8.68064e-06
6.78749e-07
-9.14273e-06
4.6209e-07
-9.37944e-06
2.36706e-07
-9.40983e-06
3.03941e-08
-9.20129e-06
-2.08544e-07
-8.76608e-06
-4.35205e-07
-8.01322e-06
-7.52861e-07
-6.90695e-06
-1.10627e-06
-5.36838e-06
-1.53857e-06
-3.45364e-06
-1.91474e-06
-1.47716e-06
-1.97648e-06
-1.47716e-06
-7.1391e-07
7.64278e-07
-1.84741e-06
1.67803e-06
-3.25839e-06
2.47354e-06
-4.69411e-06
2.83833e-06
-6.02625e-06
2.79665e-06
-7.16009e-06
2.50286e-06
-8.06456e-06
2.07553e-06
-8.74317e-06
1.61584e-06
-9.24328e-06
1.17886e-06
-9.5426e-06
7.61407e-07
-9.64544e-06
3.39547e-07
-9.53961e-06
-7.54319e-08
-9.28925e-06
-4.58907e-07
-8.8227e-06
-9.01751e-07
-8.13455e-06
-1.44101e-06
-7.14006e-06
-2.10076e-06
-5.78543e-06
-2.8932e-06
-3.99972e-06
-3.70045e-06
-1.92836e-06
-4.04784e-06
-3.40552e-06
-1.18262e-06
1.94689e-06
-2.58207e-06
3.07748e-06
-3.97717e-06
3.86864e-06
-5.23434e-06
4.0955e-06
-6.29013e-06
3.85244e-06
-7.10275e-06
3.31548e-06
-7.69235e-06
2.66513e-06
-8.06119e-06
1.98468e-06
-8.26213e-06
1.3798e-06
-8.30259e-06
8.01862e-07
-8.25359e-06
2.90546e-07
-8.11782e-06
-2.11199e-07
-7.8735e-06
-7.03231e-07
-7.50014e-06
-1.27511e-06
-6.98701e-06
-1.95415e-06
-6.26865e-06
-2.81912e-06
-5.27016e-06
-3.89169e-06
-3.85406e-06
-5.11655e-06
-2.03162e-06
-5.87029e-06
-5.43714e-06
-1.35616e-06
3.30306e-06
-2.75148e-06
4.4728e-06
-3.97703e-06
5.09419e-06
-4.97881e-06
5.09727e-06
-5.70184e-06
4.57547e-06
-6.14707e-06
3.76071e-06
-6.37155e-06
2.88962e-06
-6.45935e-06
2.07248e-06
-6.4738e-06
1.39425e-06
-6.45078e-06
7.78843e-07
-6.38132e-06
2.21089e-07
-6.25954e-06
-3.32984e-07
-6.05992e-06
-9.02847e-07
-5.78679e-06
-1.54824e-06
-5.425e-06
-2.31594e-06
-4.96324e-06
-3.28088e-06
-4.32143e-06
-4.53349e-06
-3.31436e-06
-6.12362e-06
-1.84393e-06
-7.34071e-06
-7.28107e-06
-1.2645e-06
4.56756e-06
-2.47225e-06
5.68054e-06
-3.47078e-06
6.09272e-06
-4.19459e-06
5.82109e-06
-4.613e-06
4.99388e-06
-4.79821e-06
3.94591e-06
-4.87063e-06
2.96204e-06
-4.91082e-06
2.11267e-06
-4.91144e-06
1.39486e-06
-4.88053e-06
7.47936e-07
-4.8117e-06
1.52264e-07
-4.69456e-06
-4.50128e-07
-4.5225e-06
-1.07491e-06
-4.29742e-06
-1.77331e-06
-4.0195e-06
-2.59386e-06
-3.68561e-06
-3.61477e-06
-3.29196e-06
-4.92714e-06
-2.62382e-06
-6.79177e-06
-1.53325e-06
-8.43128e-06
-8.81432e-06
-1.03709e-06
5.60466e-06
-2.00877e-06
6.65223e-06
-2.7651e-06
6.84904e-06
-3.25889e-06
6.31488e-06
-3.49682e-06
5.2318e-06
-3.59795e-06
4.04704e-06
-3.64988e-06
3.01397e-06
-3.68971e-06
2.15251e-06
-3.71071e-06
1.41585e-06
-3.70478e-06
7.42007e-07
-3.65629e-06
1.03775e-07
-3.56283e-06
-5.43585e-07
-3.41408e-06
-1.22366e-06
-3.211e-06
-1.97639e-06
-2.96533e-06
-2.83953e-06
-2.68826e-06
-3.89184e-06
-2.42325e-06
-5.19216e-06
-2.05546e-06
-7.15955e-06
-1.22222e-06
-9.26453e-06
-1.00365e-05
-7.81014e-07
6.38567e-06
-1.48056e-06
7.35178e-06
-2.0165e-06
7.38498e-06
-2.35023e-06
6.64861e-06
-2.50778e-06
5.38935e-06
-2.5866e-06
4.12586e-06
-2.64299e-06
3.07036e-06
-2.69306e-06
2.20258e-06
-2.72427e-06
1.44707e-06
-2.72945e-06
7.47189e-07
-2.69951e-06
7.38304e-08
-2.63212e-06
-6.10976e-07
-2.52098e-06
-1.3348e-06
-2.36069e-06
-2.13668e-06
-2.15855e-06
-3.04167e-06
-1.92174e-06
-4.12864e-06
-1.70215e-06
-5.41175e-06
-1.48901e-06
-7.3727e-06
-9.72854e-07
-9.78068e-06
-1.10094e-05
-4.90746e-07
6.87642e-06
-9.65102e-07
7.82613e-06
-1.326e-06
7.74588e-06
-1.54688e-06
6.86949e-06
-1.66175e-06
5.50423e-06
-1.7263e-06
4.19041e-06
-1.78156e-06
3.12561e-06
-1.83055e-06
2.25157e-06
-1.86146e-06
1.47798e-06
-1.87028e-06
7.56012e-07
-1.8526e-06
5.6153e-08
-1.80845e-06
-6.55132e-07
-1.73659e-06
-1.40666e-06
-1.62978e-06
-2.24349e-06
-1.49066e-06
-3.18079e-06
-1.3204e-06
-4.2989e-06
-1.17118e-06
-5.56098e-06
-1.06095e-06
-7.48292e-06
-7.37991e-07
-1.01036e-05
-1.17474e-05
-2.47022e-07
7.12344e-06
-4.88958e-07
8.06807e-06
-6.8564e-07
7.94256e-06
-8.20766e-07
7.00461e-06
-9.02098e-07
5.58556e-06
-9.61409e-07
4.24972e-06
-1.01329e-06
3.1775e-06
-1.05522e-06
2.29349e-06
-1.08258e-06
1.50534e-06
-1.09511e-06
7.68539e-07
-1.09187e-06
5.29148e-08
-1.07203e-06
-6.74968e-07
-1.0381e-06
-1.44059e-06
-9.8163e-07
-2.29996e-06
-9.0909e-07
-3.25333e-06
-8.00964e-07
-4.40703e-06
-7.24416e-07
-5.63752e-06
-6.65494e-07
-7.54184e-06
-5.60397e-07
-1.02087e-05
-1.23078e-05
2.53576e-08
7.09808e-06
-5.68388e-08
8.15027e-06
-1.25871e-07
8.01159e-06
-1.76437e-07
7.05518e-06
-2.1832e-07
5.62744e-06
-2.64337e-07
4.29574e-06
-3.04478e-07
3.21764e-06
-3.34029e-07
2.32304e-06
-3.56566e-07
1.52788e-06
-3.73627e-07
7.85601e-07
-3.86137e-07
6.54248e-08
-3.92098e-07
-6.69006e-07
-3.93993e-07
-1.4387e-06
-3.92211e-07
-2.30174e-06
-3.80831e-07
-3.26471e-06
-3.59409e-07
-4.42845e-06
-3.62874e-07
-5.63406e-06
-3.87722e-07
-7.517e-06
-4.07898e-07
-1.01886e-05
-1.27157e-05
2.44179e-07
6.8539e-06
3.89962e-07
8.00448e-06
4.8391e-07
7.91764e-06
4.78882e-07
7.06021e-06
4.51577e-07
5.65475e-06
4.17064e-07
4.33025e-06
3.88679e-07
3.24602e-06
3.67404e-07
2.34432e-06
3.46932e-07
1.54835e-06
3.24366e-07
8.08166e-07
2.96334e-07
9.34571e-08
2.62643e-07
-6.35315e-07
2.24708e-07
-1.40076e-06
1.71977e-07
-2.24901e-06
1.35526e-07
-3.22826e-06
3.92681e-08
-4.33219e-06
2.44964e-08
-5.61929e-06
-1.55175e-07
-7.33733e-06
-2.96246e-07
-1.00475e-05
-1.30119e-05
4.83296e-07
6.37061e-06
8.02851e-07
7.68493e-06
1.04083e-06
7.67967e-06
1.11715e-06
6.98389e-06
1.11351e-06
5.65838e-06
1.09163e-06
4.35214e-06
1.07699e-06
3.26067e-06
1.06833e-06
2.35297e-06
1.05421e-06
1.56248e-06
1.0287e-06
8.33675e-07
9.86001e-07
1.36154e-07
9.26636e-07
-5.75949e-07
8.44623e-07
-1.31875e-06
7.55922e-07
-2.16031e-06
6.22761e-07
-3.0951e-06
5.04249e-07
-4.21368e-06
3.13091e-07
-5.42813e-06
2.09008e-08
-7.04514e-06
-1.66321e-07
-9.86026e-06
-1.31782e-05
6.91034e-07
5.67957e-06
1.21102e-06
7.16494e-06
1.59648e-06
7.29421e-06
1.79396e-06
6.78641e-06
1.84471e-06
5.60763e-06
1.84429e-06
4.35255e-06
1.8385e-06
3.26646e-06
1.83324e-06
2.35824e-06
1.81661e-06
1.5791e-06
1.78188e-06
8.68406e-07
1.72002e-06
1.98018e-07
1.63296e-06
-4.88896e-07
1.51136e-06
-1.19715e-06
1.36758e-06
-2.01653e-06
1.16759e-06
-2.89511e-06
9.69396e-07
-4.01549e-06
6.51477e-07
-5.11021e-06
3.1254e-07
-6.7062e-06
1.03148e-08
-9.55804e-06
-1.31679e-05
8.75274e-07
4.8043e-06
1.56931e-06
6.4709e-06
2.09997e-06
6.76356e-06
2.45179e-06
6.43459e-06
2.59685e-06
5.46257e-06
2.64238e-06
4.30703e-06
2.65737e-06
3.25146e-06
2.66196e-06
2.35365e-06
2.64913e-06
1.59194e-06
2.61193e-06
9.05606e-07
2.53611e-06
2.7383e-07
2.42462e-06
-3.77405e-07
2.26238e-06
-1.03491e-06
2.05887e-06
-1.81301e-06
1.78646e-06
-2.6227e-06
1.47503e-06
-3.70406e-06
1.02933e-06
-4.66451e-06
5.7947e-07
-6.25634e-06
1.49002e-07
-9.12757e-06
-1.30189e-05
9.74148e-07
3.83015e-06
1.86005e-06
5.585e-06
2.5743e-06
6.04931e-06
3.11597e-06
5.89292e-06
3.4271e-06
5.15143e-06
3.5824e-06
4.15173e-06
3.64827e-06
3.18559e-06
3.67275e-06
2.32917e-06
3.6598e-06
1.60489e-06
3.61376e-06
9.5164e-07
3.51446e-06
3.73136e-07
3.36596e-06
-2.28912e-07
3.1501e-06
-8.19049e-07
2.87498e-06
-1.53789e-06
2.50499e-06
-2.2527e-06
2.05097e-06
-3.25005e-06
1.46195e-06
-4.07549e-06
8.66455e-07
-5.66084e-06
3.05238e-07
-8.56635e-06
-1.27137e-05
1.00652e-06
2.82363e-06
1.9764e-06
4.61511e-06
2.85945e-06
5.16626e-06
3.61381e-06
5.13856e-06
4.14981e-06
4.61543e-06
4.48935e-06
3.81219e-06
4.68217e-06
2.99278e-06
4.78103e-06
2.23031e-06
4.80221e-06
1.58371e-06
4.76609e-06
9.87764e-07
4.65267e-06
4.86556e-07
4.47924e-06
-5.54805e-08
4.20796e-06
-5.47775e-07
3.85065e-06
-1.18058e-06
3.35588e-06
-1.75793e-06
2.71868e-06
-2.61284e-06
1.94766e-06
-3.30448e-06
1.16882e-06
-4.882e-06
4.74618e-07
-7.87215e-06
-1.22391e-05
7.98898e-07
2.02474e-06
1.91074e-06
3.50327e-06
2.99087e-06
4.08613e-06
3.98592e-06
4.1435e-06
4.79365e-06
3.80771e-06
5.38345e-06
3.22238e-06
5.77238e-06
2.60385e-06
6.01707e-06
1.98562e-06
6.1208e-06
1.47997e-06
6.13578e-06
9.72792e-07
6.03428e-06
5.8805e-07
5.82822e-06
1.50579e-07
5.48243e-06
-2.01977e-07
5.01933e-06
-7.17487e-07
4.3613e-06
-1.0999e-06
3.51806e-06
-1.7696e-06
2.55476e-06
-2.34118e-06
1.59194e-06
-3.91918e-06
6.7922e-07
-6.95944e-06
-1.15598e-05
2.84824e-07
1.73991e-06
1.33373e-06
2.45436e-06
2.5603e-06
2.85957e-06
3.80327e-06
2.90053e-06
4.89794e-06
2.71303e-06
5.78231e-06
2.33802e-06
6.41866e-06
1.9675e-06
6.86469e-06
1.5396e-06
7.11521e-06
1.22945e-06
7.22275e-06
8.65247e-07
7.16462e-06
6.46183e-07
7.00044e-06
3.14755e-07
6.67654e-06
1.21921e-07
6.17651e-06
-2.1745e-07
5.48955e-06
-4.12937e-07
4.62348e-06
-9.03537e-07
3.62301e-06
-1.34071e-06
2.56052e-06
-2.85669e-06
1.19988e-06
-5.59879e-06
-1.036e-05
-4.95193e-07
2.23511e-06
4.59191e-07
1.49998e-06
1.96599e-06
1.35276e-06
3.50241e-06
1.36411e-06
4.85331e-06
1.36214e-06
5.97199e-06
1.21933e-06
6.85354e-06
1.08595e-06
7.5163e-06
8.76847e-07
7.99351e-06
7.52234e-07
8.28762e-06
5.7114e-07
8.45554e-06
4.78261e-07
8.4639e-06
3.06393e-07
8.35505e-06
2.30778e-07
8.07462e-06
6.29812e-08
7.69057e-06
-2.88891e-08
7.11152e-06
-3.24485e-07
6.3824e-06
-6.11591e-07
5.1896e-06
-1.66389e-06
2.85942e-06
-3.26861e-06
-7.50054e-06
2.23511e-06
3.73509e-06
5.08785e-06
6.45196e-06
7.8141e-06
9.03343e-06
1.01194e-05
1.09962e-05
1.17485e-05
1.23196e-05
1.27979e-05
1.31043e-05
1.3335e-05
1.3398e-05
1.33691e-05
1.30446e-05
1.2433e-05
1.07692e-05
7.50054e-06
)
;

boundaryField
{
    movingWall
    {
        type            calculated;
        value           uniform 0;
    }
    fixedWalls
    {
        type            calculated;
        value           uniform 0;
    }
    frontAndBack
    {
        type            empty;
        value           nonuniform 0();
    }
}


// ************************************************************************* //
