/*--------------------------------*- C++ -*----------------------------------*\
| =========                 |                                                 |
| \\      /  F ield         | OpenFOAM: The Open Source CFD Toolbox           |
|  \\    /   O peration     | Version:  4.1                                   |
|   \\  /    A nd           | Web:      www.OpenFOAM.org                      |
|    \\/     M anipulation  |                                                 |
\*---------------------------------------------------------------------------*/
FoamFile
{
    version     2.0;
    format      ascii;
    class       volVectorField;
    location    "9";
    object      U;
}
// * * * * * * * * * * * * * * * * * * * * * * * * * * * * * * * * * * * * * //

dimensions      [0 1 -1 0 0 0 0];

internalField   nonuniform List<vector> 
400
(
(0.00145302 -0.00311876 0)
(-0.00366913 0.0026876 0)
(-0.0181296 0.00934164 0)
(-0.0459315 0.0153446 0)
(-0.0777953 0.0163338 0)
(-0.10729 0.0147625 0)
(-0.133021 0.012647 0)
(-0.153347 0.0101805 0)
(-0.168961 0.00795627 0)
(-0.180031 0.00544893 0)
(-0.186602 0.00334483 0)
(-0.189271 0.0012417 0)
(-0.188111 -0.00215667 0)
(-0.180505 -0.00451656 0)
(-0.1681 -0.00874494 0)
(-0.14776 -0.0125204 0)
(-0.120598 -0.0173627 0)
(-0.0856998 -0.0202112 0)
(-0.0486486 -0.0188556 0)
(-0.0154103 -0.0103629 0)
(-0.00571549 0.00576262 0)
(-0.0223 0.0212167 0)
(-0.0487607 0.0358822 0)
(-0.0803154 0.0428902 0)
(-0.11011 0.0428367 0)
(-0.135356 0.0388545 0)
(-0.15518 0.032895 0)
(-0.169639 0.0265386 0)
(-0.181973 0.0185235 0)
(-0.189084 0.0123633 0)
(-0.193483 0.00560628 0)
(-0.193238 -0.000372584 0)
(-0.189893 -0.00747053 0)
(-0.18217 -0.0150771 0)
(-0.170073 -0.0245727 0)
(-0.151988 -0.0356679 0)
(-0.127458 -0.048485 0)
(-0.0955115 -0.0599156 0)
(-0.0597888 -0.0618834 0)
(-0.0209756 -0.0464968 0)
(-0.0115098 0.0270176 0)
(-0.0356523 0.0480555 0)
(-0.0655545 0.0637012 0)
(-0.0946245 0.0690669 0)
(-0.118889 0.0658786 0)
(-0.137109 0.0574627 0)
(-0.149594 0.0464244 0)
(-0.159663 0.0346197 0)
(-0.164735 0.0249182 0)
(-0.16617 0.014866 0)
(-0.166388 0.00571907 0)
(-0.164343 -0.00371304 0)
(-0.161272 -0.0132594 0)
(-0.154563 -0.0242862 0)
(-0.145744 -0.0373626 0)
(-0.132402 -0.0538631 0)
(-0.114226 -0.0736113 0)
(-0.0884833 -0.0944025 0)
(-0.0592474 -0.104894 0)
(-0.0219809 -0.0926428 0)
(-0.0140032 0.052446 0)
(-0.040857 0.0758124 0)
(-0.069158 0.0893898 0)
(-0.0932864 0.0910861 0)
(-0.110611 0.0834011 0)
(-0.121142 0.0698636 0)
(-0.127048 0.0549232 0)
(-0.129074 0.0406504 0)
(-0.128818 0.0276285 0)
(-0.129944 0.0157257 0)
(-0.128545 0.00514356 0)
(-0.127259 -0.00538531 0)
(-0.123708 -0.016143 0)
(-0.119383 -0.0286388 0)
(-0.112892 -0.0436712 0)
(-0.104844 -0.063071 0)
(-0.0928706 -0.0877579 0)
(-0.0731967 -0.116849 0)
(-0.0518049 -0.136502 0)
(-0.0196367 -0.131902 0)
(-0.0136926 0.0775732 0)
(-0.0381526 0.10024 0)
(-0.0625516 0.110658 0)
(-0.0809153 0.108269 0)
(-0.0914891 0.0952003 0)
(-0.0956177 0.0771559 0)
(-0.0969713 0.0591189 0)
(-0.0974537 0.0426828 0)
(-0.0980169 0.028466 0)
(-0.0980649 0.0157039 0)
(-0.0971436 0.00403152 0)
(-0.0955096 -0.00744533 0)
(-0.0926257 -0.0192825 0)
(-0.0887066 -0.0326187 0)
(-0.0837555 -0.0485112 0)
(-0.0779149 -0.0688107 0)
(-0.0715074 -0.095886 0)
(-0.055804 -0.132522 0)
(-0.0421261 -0.161224 0)
(-0.016619 -0.164833 0)
(-0.0109544 0.100324 0)
(-0.0317658 0.122705 0)
(-0.0511832 0.128898 0)
(-0.0642625 0.121042 0)
(-0.0700045 0.102404 0)
(-0.0710822 0.0805162 0)
(-0.0719198 0.0604398 0)
(-0.0729652 0.0431039 0)
(-0.0739254 0.0283424 0)
(-0.0742147 0.01488 0)
(-0.0738577 0.00232855 0)
(-0.0724672 -0.0102821 0)
(-0.0701259 -0.0233521 0)
(-0.0665726 -0.0377195 0)
(-0.0619857 -0.0542034 0)
(-0.0563711 -0.0744567 0)
(-0.0535335 -0.100623 0)
(-0.0407003 -0.1408 0)
(-0.0360454 -0.179264 0)
(-0.00933417 -0.19094 0)
(-0.00856587 0.119236 0)
(-0.0238103 0.139194 0)
(-0.0380079 0.141389 0)
(-0.0470535 0.12916 0)
(-0.049936 0.106323 0)
(-0.0503482 0.0822017 0)
(-0.0517372 0.0612796 0)
(-0.0530877 0.0438344 0)
(-0.0541788 0.028778 0)
(-0.0546314 0.0149051 0)
(-0.0545015 0.00166412 0)
(-0.0534867 -0.0118098 0)
(-0.0516875 -0.0259925 0)
(-0.0489962 -0.0416107 0)
(-0.0455659 -0.0592333 0)
(-0.0396109 -0.0804129 0)
(-0.0392735 -0.105652 0)
(-0.0270328 -0.145187 0)
(-0.0288475 -0.192146 0)
(-0.00631377 -0.212213 0)
(-0.00504316 0.132491 0)
(-0.0153688 0.152222 0)
(-0.0254582 0.151851 0)
(-0.031295 0.135679 0)
(-0.0326727 0.109574 0)
(-0.0330904 0.0837142 0)
(-0.0347134 0.0622884 0)
(-0.0359712 0.044738 0)
(-0.0369674 0.0293482 0)
(-0.0373967 0.0150619 0)
(-0.0373679 0.00126248 0)
(-0.0367145 -0.0127581 0)
(-0.0355002 -0.0275941 0)
(-0.0335937 -0.0440456 0)
(-0.0319963 -0.0624134 0)
(-0.0261256 -0.0844452 0)
(-0.0284042 -0.10953 0)
(-0.0166657 -0.148582 0)
(-0.0241111 -0.199502 0)
(-0.00176834 -0.228554 0)
(-0.00286814 0.141174 0)
(-0.00766115 0.159086 0)
(-0.0134151 0.156818 0)
(-0.016788 0.138639 0)
(-0.0173825 0.110777 0)
(-0.0179448 0.0843371 0)
(-0.0195736 0.0630586 0)
(-0.020609 0.0455205 0)
(-0.0214192 0.0298807 0)
(-0.0218131 0.0152517 0)
(-0.0219257 0.00103413 0)
(-0.0216766 -0.013402 0)
(-0.0211858 -0.0286515 0)
(-0.0198032 -0.0457003 0)
(-0.020182 -0.0646973 0)
(-0.0144738 -0.087341 0)
(-0.0193076 -0.112129 0)
(-0.0077396 -0.150465 0)
(-0.0197884 -0.203167 0)
(0.000586111 -0.241475 0)
(0.00116411 0.143316 0)
(-0.000276715 0.163826 0)
(-0.00254973 0.161079 0)
(-0.00373499 0.141627 0)
(-0.00390994 0.112891 0)
(-0.00440754 0.085933 0)
(-0.00565125 0.0642393 0)
(-0.00632166 0.0463279 0)
(-0.00690438 0.0304087 0)
(-0.00729134 0.0155552 0)
(-0.00759655 0.00113103 0)
(-0.00771666 -0.0135253 0)
(-0.00809897 -0.0289181 0)
(-0.0071012 -0.0461481 0)
(-0.00940927 -0.0655121 0)
(-0.00425793 -0.0883963 0)
(-0.0118537 -0.113542 0)
(-0.000524149 -0.150501 0)
(-0.0170187 -0.204305 0)
(0.00370351 -0.250935 0)
(0.00332545 0.140861 0)
(0.00622928 0.16245 0)
(0.00814326 0.159736 0)
(0.00893436 0.140864 0)
(0.00933077 0.112456 0)
(0.0091006 0.085758 0)
(0.00815881 0.0642784 0)
(0.00766012 0.0465016 0)
(0.00719049 0.0306956 0)
(0.00676838 0.0159036 0)
(0.00621798 0.00152743 0)
(0.00581812 -0.0131439 0)
(0.00448937 -0.0285582 0)
(0.00502782 -0.0457352 0)
(0.00114251 -0.0652687 0)
(0.00542788 -0.0879409 0)
(-0.00462227 -0.11311 0)
(0.00638933 -0.148135 0)
(-0.0146452 -0.203067 0)
(0.00587604 -0.257628 0)
(0.00594407 0.13475 0)
(0.0128878 0.159454 0)
(0.0177568 0.15822 0)
(0.0209288 0.142126 0)
(0.0222196 0.113869 0)
(0.0224682 0.0873125 0)
(0.0219119 0.0653936 0)
(0.0216185 0.0471957 0)
(0.0213266 0.0312435 0)
(0.0209665 0.0164743 0)
(0.0201409 0.00227049 0)
(0.0195577 -0.0121939 0)
(0.0172676 -0.0273627 0)
(0.0172394 -0.044341 0)
(0.0119719 -0.0635201 0)
(0.0149826 -0.0861221 0)
(0.00278713 -0.110763 0)
(0.0127428 -0.144318 0)
(-0.0129934 -0.19955 0)
(0.00915436 -0.261407 0)
(0.00814747 0.12249 0)
(0.0188426 0.149715 0)
(0.0278361 0.149957 0)
(0.0329949 0.138123 0)
(0.0361839 0.111997 0)
(0.0372631 0.0860573 0)
(0.0371619 0.0644452 0)
(0.036958 0.0465506 0)
(0.0366193 0.0310655 0)
(0.0362438 0.0168115 0)
(0.0349108 0.00318649 0)
(0.0342154 -0.0107757 0)
(0.0308294 -0.0253222 0)
(0.0303689 -0.042021 0)
(0.023494 -0.0602494 0)
(0.0253545 -0.0829007 0)
(0.010992 -0.105514 0)
(0.0192193 -0.137959 0)
(-0.0106357 -0.193741 0)
(0.0125987 -0.262986 0)
(0.0106782 0.107919 0)
(0.0241758 0.139917 0)
(0.0366477 0.143697 0)
(0.0445782 0.134711 0)
(0.0500098 0.112743 0)
(0.0525656 0.0876263 0)
(0.0533355 0.0657094 0)
(0.0535203 0.0474326 0)
(0.053189 0.0319483 0)
(0.0530737 0.0179321 0)
(0.0512073 0.00481005 0)
(0.0505999 -0.00864741 0)
(0.0460848 -0.0223917 0)
(0.0451909 -0.038434 0)
(0.0365564 -0.0554101 0)
(0.0371084 -0.0774206 0)
(0.0202107 -0.0980058 0)
(0.0257966 -0.13043 0)
(-0.00802357 -0.187421 0)
(0.0171472 -0.262976 0)
(0.011596 0.0870824 0)
(0.0284127 0.121129 0)
(0.044448 0.128762 0)
(0.0560524 0.123897 0)
(0.0646798 0.106616 0)
(0.0698842 0.0845282 0)
(0.0723917 0.0638477 0)
(0.0736529 0.0461347 0)
(0.0732726 0.0312797 0)
(0.0735147 0.0180426 0)
(0.0707966 0.0060508 0)
(0.0701346 -0.00640218 0)
(0.064217 -0.0187066 0)
(0.062625 -0.0335122 0)
(0.0520282 -0.0486585 0)
(0.0508198 -0.0693775 0)
(0.0307532 -0.0873705 0)
(0.0332484 -0.119706 0)
(-0.00522618 -0.178394 0)
(0.0220286 -0.262375 0)
(0.0128445 0.0689982 0)
(0.0298097 0.105841 0)
(0.0484388 0.11655 0)
(0.0640877 0.114714 0)
(0.0766723 0.102075 0)
(0.0857869 0.0834301 0)
(0.0912883 0.0646311 0)
(0.0951882 0.0475664 0)
(0.0955119 0.0332678 0)
(0.0968886 0.0204434 0)
(0.0935473 0.00938647 0)
(0.092992 -0.00218967 0)
(0.0858376 -0.0129521 0)
(0.0833659 -0.0264336 0)
(0.0708578 -0.0394094 0)
(0.0666414 -0.0581133 0)
(0.0428357 -0.0736128 0)
(0.0414955 -0.106915 0)
(-0.00277678 -0.168861 0)
(0.0278936 -0.259612 0)
(0.00688006 0.0426987 0)
(0.0280781 0.0778645 0)
(0.0496452 0.0914044 0)
(0.0692329 0.0932748 0)
(0.0866084 0.0857001 0)
(0.101018 0.0723642 0)
(0.110384 0.057818 0)
(0.118575 0.0435208 0)
(0.120698 0.0310884 0)
(0.124193 0.0194789 0)
(0.120908 0.00997422 0)
(0.120615 -0.000134209 0)
(0.112182 -0.00866709 0)
(0.108129 -0.0196669 0)
(0.0932736 -0.0290336 0)
(0.0846862 -0.0440068 0)
(0.0570554 -0.056624 0)
(0.0521008 -0.0903569 0)
(0.000934531 -0.154262 0)
(0.0357404 -0.249078 0)
(-0.00152279 0.0442161 0)
(0.0152656 0.0671285 0)
(0.0397995 0.0763882 0)
(0.0636984 0.0772147 0)
(0.0853467 0.0717045 0)
(0.106387 0.0616258 0)
(0.120375 0.0511052 0)
(0.133806 0.0403309 0)
(0.138748 0.0319637 0)
(0.144988 0.0225058 0)
(0.143282 0.0159009 0)
(0.143621 0.00739456 0)
(0.135956 0.00195097 0)
(0.131006 -0.00677975 0)
(0.115869 -0.012517 0)
(0.105896 -0.0243999 0)
(0.0780146 -0.0356372 0)
(0.0718776 -0.0694592 0)
(0.0146727 -0.129887 0)
(0.051516 -0.217983 0)
(-0.00851766 0.0109338 0)
(-0.00628009 0.0171688 0)
(0.0238982 0.0281755 0)
(0.0555288 0.0333902 0)
(0.0818381 0.0344299 0)
(0.108227 0.0308502 0)
(0.126666 0.0271951 0)
(0.144503 0.0209209 0)
(0.154568 0.0170464 0)
(0.164083 0.0116323 0)
(0.167369 0.00904216 0)
(0.170226 0.00410025 0)
(0.168037 0.00204168 0)
(0.165319 -0.00312747 0)
(0.156351 -0.00559094 0)
(0.149659 -0.0132662 0)
(0.130405 -0.0201074 0)
(0.121997 -0.0459828 0)
(0.0624677 -0.0886375 0)
(0.0880103 -0.159573 0)
(0.0471929 0.0977143 0)
(0.0531945 0.0573745 0)
(0.0871387 0.035853 0)
(0.116846 0.0272402 0)
(0.141746 0.0237203 0)
(0.16829 0.0204809 0)
(0.190276 0.018401 0)
(0.211412 0.0157701 0)
(0.227276 0.0142634 0)
(0.241631 0.0121865 0)
(0.251299 0.0111774 0)
(0.259889 0.00934105 0)
(0.264495 0.00852616 0)
(0.268054 0.00642469 0)
(0.267408 0.00505595 0)
(0.263934 0.00252851 0)
(0.254028 0.00100096 0)
(0.237154 -0.00828225 0)
(0.18088 -0.0205449 0)
(0.168739 -0.116246 0)
)
;

boundaryField
{
    movingWall
    {
        type            fixedValue;
        value           uniform (1 0 0);
    }
    fixedWalls
    {
        type            noSlip;
    }
    frontAndBack
    {
        type            empty;
    }
}


// ************************************************************************* //
