/*--------------------------------*- C++ -*----------------------------------*\
| =========                 |                                                 |
| \\      /  F ield         | OpenFOAM: The Open Source CFD Toolbox           |
|  \\    /   O peration     | Version:  4.1                                   |
|   \\  /    A nd           | Web:      www.OpenFOAM.org                      |
|    \\/     M anipulation  |                                                 |
\*---------------------------------------------------------------------------*/
FoamFile
{
    version     2.0;
    format      ascii;
    class       volScalarField;
    location    "7";
    object      epsilon;
}
// * * * * * * * * * * * * * * * * * * * * * * * * * * * * * * * * * * * * * //

dimensions      [0 2 -3 0 0 0 0];

internalField   nonuniform List<scalar> 
400
(
0.00030744
0.000974911
0.00307719
0.00631921
0.00933414
0.0114483
0.0127117
0.0132984
0.0134842
0.01336
0.0127435
0.0120142
0.0110291
0.0101136
0.00919311
0.00838412
0.00770633
0.00703976
0.00552667
0.00428
0.00070473
0.00176922
0.00375226
0.0051726
0.00559957
0.00529381
0.00457282
0.00386432
0.00323047
0.00277203
0.00253363
0.00246044
0.00263782
0.00297726
0.00351688
0.00437747
0.00571508
0.00749145
0.00949021
0.0103267
0.00165885
0.00257672
0.00330352
0.00337582
0.00268521
0.00208274
0.00156399
0.00127555
0.00111074
0.00103941
0.00102032
0.00106177
0.00120197
0.00142679
0.00187
0.0026499
0.00405303
0.00654817
0.0109801
0.0163943
0.0025148
0.00250263
0.00260789
0.0020691
0.00134798
0.000988966
0.000732278
0.000611232
0.000524209
0.000481035
0.000461459
0.000457832
0.000506739
0.00061234
0.000844629
0.00134715
0.00247503
0.00502044
0.0110521
0.0206348
0.0031491
0.00229518
0.00199604
0.00125803
0.000775221
0.00055167
0.000402499
0.00032894
0.000267401
0.000237158
0.000221228
0.00021693
0.000236777
0.000293562
0.000424022
0.000745144
0.00160537
0.00384181
0.0102624
0.0239446
0.00376435
0.00202148
0.00149952
0.000816827
0.000495206
0.000342835
0.000242458
0.000191759
0.000150675
0.000130711
0.000120946
0.000118305
0.000129945
0.000162626
0.000239451
0.000440812
0.00107428
0.0030784
0.00967235
0.0265315
0.00441927
0.0017556
0.00114652
0.000586996
0.000349657
0.000236181
0.000162493
0.000125516
9.76374e-05
8.39814e-05
7.73368e-05
7.54418e-05
8.27734e-05
0.00010401
0.000153601
0.000278981
0.000721263
0.00241702
0.00904648
0.0287194
0.00518279
0.0015673
0.00091031
0.000459198
0.000271965
0.000180748
0.000121735
9.24454e-05
7.17848e-05
6.12748e-05
5.61008e-05
5.4565e-05
5.97868e-05
7.56269e-05
0.000112436
0.000199421
0.000531755
0.0020044
0.0086168
0.0305961
0.00590181
0.00141507
0.000761098
0.000390454
0.000234193
0.00015348
0.000101519
7.566e-05
5.8663e-05
4.94398e-05
4.48625e-05
4.35269e-05
4.76653e-05
6.02193e-05
8.92987e-05
0.000155604
0.000390295
0.00163167
0.00830198
0.0323614
0.006752
0.00137936
0.000667788
0.000351794
0.000216072
0.000141564
9.23656e-05
6.7023e-05
5.21934e-05
4.3849e-05
3.96647e-05
3.8766e-05
4.23886e-05
5.31436e-05
7.77753e-05
0.000135735
0.000322241
0.00143825
0.00813673
0.0340763
0.00736255
0.00145796
0.000620599
0.000337023
0.000216611
0.00014276
9.34553e-05
6.72164e-05
5.18316e-05
4.30125e-05
3.82981e-05
3.76292e-05
4.07341e-05
5.04897e-05
7.25859e-05
0.000126964
0.000288416
0.00130466
0.00806509
0.0359077
0.00792848
0.00168951
0.000633418
0.000341151
0.000221994
0.000148393
9.84707e-05
7.0342e-05
5.4177e-05
4.49817e-05
3.99384e-05
3.92936e-05
4.16333e-05
5.0263e-05
7.13382e-05
0.000124437
0.00027913
0.00125922
0.0080396
0.0379594
0.00797622
0.00205863
0.000689293
0.000357624
0.000234828
0.000160706
0.000109489
7.83735e-05
6.06061e-05
5.06373e-05
4.49365e-05
4.4828e-05
4.73518e-05
5.62047e-05
7.69542e-05
0.000129567
0.000279012
0.00126262
0.00824046
0.040451
0.00779515
0.00252734
0.000829496
0.000399279
0.000256357
0.000180524
0.000128613
9.47022e-05
7.40572e-05
6.26222e-05
5.5844e-05
5.61556e-05
5.92505e-05
6.92341e-05
9.15672e-05
0.000149696
0.000314828
0.00140428
0.00934059
0.0435905
0.00720055
0.00292381
0.00103831
0.000484636
0.000297329
0.000206877
0.000152028
0.000117643
9.58685e-05
8.43883e-05
7.6867e-05
7.74967e-05
8.11926e-05
9.27138e-05
0.000118222
0.000187759
0.000385584
0.00168213
0.010868
0.0480436
0.00622635
0.00312291
0.00139354
0.00068139
0.000391956
0.000261392
0.000190709
0.000149556
0.000124148
0.000112199
0.000106174
0.000108121
0.000114075
0.000130618
0.000168165
0.00027196
0.000559668
0.00231967
0.0136125
0.0542807
0.00441148
0.00292198
0.00156721
0.000882102
0.00054914
0.000375488
0.000275829
0.000218496
0.000183961
0.000167275
0.000164447
0.000169347
0.000183522
0.000224405
0.000310943
0.000528001
0.00107997
0.00395105
0.0186797
0.0636611
0.00337135
0.00251723
0.00188458
0.0013354
0.000986466
0.000770162
0.000635749
0.000566283
0.000535146
0.000543177
0.000567836
0.000632082
0.000703629
0.000873721
0.00115054
0.00185987
0.00345655
0.00944616
0.0305078
0.0791845
0.00415587
0.00574844
0.00710303
0.00732959
0.00724508
0.00721522
0.00727825
0.00749903
0.00779244
0.00832378
0.00874753
0.00957723
0.0102241
0.0115162
0.0125708
0.0162121
0.0223232
0.0372592
0.0702133
0.110759
0.0450148
0.0890527
0.121869
0.134461
0.137486
0.137844
0.137767
0.13803
0.138435
0.139467
0.140342
0.142167
0.143974
0.146563
0.150249
0.15365
0.157415
0.162172
0.178047
0.153198
)
;

boundaryField
{
    movingWall
    {
        Cmu             0.09;
        kappa           0.41;
        E               9.8;
        type            epsilonWallFunction;
        value           nonuniform List<scalar> 
20
(
0.0450148
0.0890527
0.121869
0.134461
0.137486
0.137844
0.137767
0.13803
0.138435
0.139467
0.140342
0.142167
0.143974
0.146563
0.150249
0.15365
0.157415
0.162172
0.178047
0.153198
)
;
    }
    fixedWalls
    {
        Cmu             0.09;
        kappa           0.41;
        E               9.8;
        type            epsilonWallFunction;
        value           nonuniform List<scalar> 
60
(
0.00030744
0.00070473
0.00165885
0.0025148
0.0031491
0.00376435
0.00441927
0.00518279
0.00590181
0.006752
0.00736255
0.00792848
0.00797622
0.00779515
0.00720055
0.00622635
0.00441148
0.00337135
0.00415587
0.0450148
0.00428
0.0103267
0.0163943
0.0206348
0.0239446
0.0265315
0.0287194
0.0305961
0.0323614
0.0340763
0.0359077
0.0379594
0.040451
0.0435905
0.0480436
0.0542807
0.0636611
0.0791845
0.110759
0.153198
0.00030744
0.000974911
0.00307719
0.00631921
0.00933414
0.0114483
0.0127117
0.0132984
0.0134842
0.01336
0.0127435
0.0120142
0.0110291
0.0101136
0.00919311
0.00838412
0.00770633
0.00703976
0.00552667
0.00428
)
;
    }
    frontAndBack
    {
        type            empty;
    }
}


// ************************************************************************* //
