/*--------------------------------*- C++ -*----------------------------------*\
| =========                 |                                                 |
| \\      /  F ield         | OpenFOAM: The Open Source CFD Toolbox           |
|  \\    /   O peration     | Version:  4.1                                   |
|   \\  /    A nd           | Web:      www.OpenFOAM.org                      |
|    \\/     M anipulation  |                                                 |
\*---------------------------------------------------------------------------*/
FoamFile
{
    version     2.0;
    format      ascii;
    class       volScalarField;
    location    "7";
    object      k;
}
// * * * * * * * * * * * * * * * * * * * * * * * * * * * * * * * * * * * * * //

dimensions      [0 2 -2 0 0 0 0];

internalField   nonuniform List<scalar> 
400
(
0.000154418
0.000333351
0.00071726
0.00115873
0.00150277
0.00172178
0.00184613
0.00190245
0.00192009
0.0019082
0.00184902
0.00177775
0.00167917
0.00158491
0.00148723
0.00139865
0.00132222
0.00124485
0.00105941
0.000893388
0.000268479
0.000578089
0.000933167
0.001108
0.00116746
0.00107715
0.00098228
0.000887498
0.000822969
0.000786737
0.000772405
0.000779268
0.000839129
0.000909849
0.00103022
0.00117638
0.00136219
0.0015543
0.00167363
0.0016071
0.000475083
0.000796928
0.000901916
0.000912186
0.000716619
0.000622641
0.000530659
0.000485105
0.000453502
0.000438254
0.000432233
0.000431834
0.000459948
0.000503793
0.000596029
0.000750386
0.000994539
0.00136241
0.00185212
0.00218701
0.000626935
0.00080563
0.000814988
0.000649511
0.000484059
0.000409733
0.000347796
0.000317457
0.00028501
0.000267361
0.000254992
0.000250502
0.000252805
0.000277982
0.000328061
0.000441599
0.00067281
0.00108488
0.00183069
0.00254945
0.000728346
0.000789858
0.000690509
0.000470143
0.000355882
0.000299604
0.000252926
0.000228834
0.000206119
0.000195247
0.000187292
0.000184614
0.000184558
0.000197711
0.00022508
0.000295895
0.000479823
0.000878316
0.00170737
0.00281522
0.000820333
0.000750765
0.00057066
0.000368655
0.000280634
0.000235139
0.000200564
0.000184074
0.000171126
0.000164822
0.000160703
0.000159405
0.000161537
0.00017145
0.000189737
0.000231016
0.000364048
0.000738539
0.00163584
0.00301447
0.000912901
0.000693692
0.000481593
0.000307648
0.000235135
0.000198342
0.000173922
0.000162765
0.000154936
0.000150037
0.000147073
0.000146209
0.000149829
0.000160054
0.000177006
0.000204332
0.000293411
0.0006179
0.00155532
0.00317797
0.00101521
0.000628822
0.000419945
0.000271034
0.000211121
0.000180039
0.000160628
0.000151613
0.000144895
0.00013907
0.000135175
0.000133873
0.000137364
0.0001499
0.00017095
0.000193808
0.000258238
0.000542799
0.00151352
0.00331493
0.00110705
0.000587972
0.000379765
0.000251067
0.000198013
0.000170627
0.000153785
0.000145534
0.000138508
0.000131727
0.000126713
0.000124955
0.000128392
0.000140526
0.00016352
0.000189383
0.000232468
0.000471354
0.00148299
0.00344123
0.00121096
0.000551969
0.00035469
0.000239204
0.000196077
0.000170751
0.000153005
0.000143007
0.000135413
0.000128407
0.000122912
0.000121037
0.000124563
0.000135977
0.000157202
0.000187674
0.000220012
0.000433243
0.00147002
0.00356176
0.00128289
0.000555084
0.000340432
0.000237653
0.000197316
0.000172281
0.000154062
0.000143403
0.000135459
0.000128457
0.000122769
0.000120435
0.000123484
0.000134267
0.000154113
0.000187079
0.000212045
0.000399355
0.00146612
0.00368826
0.00134782
0.000573837
0.000342268
0.000239803
0.000200684
0.000175919
0.000156864
0.000145053
0.000136756
0.000130123
0.000124892
0.000122743
0.000125032
0.000134248
0.000153248
0.000187214
0.000209324
0.000384853
0.00146592
0.00382745
0.00135321
0.000611888
0.000352046
0.000245814
0.000206417
0.000181505
0.000161938
0.000148668
0.000139996
0.000134092
0.000129553
0.00012856
0.000130861
0.000139843
0.000157132
0.000190109
0.000208469
0.000380017
0.00148998
0.00399316
0.00133264
0.000677596
0.000377927
0.000259486
0.000214221
0.000188435
0.000168712
0.000154817
0.000145956
0.000141221
0.000137769
0.000138434
0.000141453
0.000151527
0.000166951
0.000195053
0.000209619
0.000383535
0.00159318
0.0041972
0.00126395
0.000734048
0.000415204
0.00028166
0.000226677
0.000196936
0.000176184
0.000162511
0.000154274
0.000150903
0.000150689
0.000152624
0.000157009
0.000168605
0.000180826
0.00020019
0.000215183
0.000417465
0.00175156
0.00447839
0.00114716
0.000786424
0.000485407
0.000328379
0.00025347
0.000214378
0.000189322
0.000173919
0.000164039
0.000163524
0.000164783
0.00016926
0.000173691
0.000183948
0.000192527
0.000203814
0.00022745
0.000487194
0.0020202
0.00485803
0.000911642
0.000764762
0.000535587
0.000387341
0.000300454
0.000250644
0.000217542
0.000196867
0.000182649
0.000176632
0.00017665
0.000178528
0.000182499
0.000191679
0.00020004
0.000219715
0.000278901
0.000673958
0.00247878
0.00540271
0.00076197
0.000717502
0.000605838
0.000485401
0.000399378
0.000337994
0.000292685
0.000263006
0.000241842
0.000229697
0.000224634
0.000226142
0.000230799
0.000244937
0.000275302
0.000357959
0.000551196
0.00123477
0.00340291
0.00624868
0.000875992
0.00097832
0.00105937
0.00103579
0.000985034
0.000948118
0.000933937
0.000942199
0.000962845
0.00101024
0.00105492
0.00114754
0.00122258
0.00137725
0.00150209
0.00183817
0.00233078
0.00346703
0.00591077
0.00781532
0.00428818
0.00675775
0.00832966
0.00889386
0.00902664
0.00904217
0.00903872
0.00905017
0.00906792
0.00911296
0.00915108
0.00923031
0.00930848
0.00941973
0.00957707
0.00972104
0.00987922
0.0100772
0.0107246
0.00970201
)
;

boundaryField
{
    movingWall
    {
        type            kqRWallFunction;
        value           nonuniform List<scalar> 
20
(
0.00428818
0.00675775
0.00832966
0.00889386
0.00902664
0.00904217
0.00903872
0.00905017
0.00906792
0.00911296
0.00915108
0.00923031
0.00930848
0.00941973
0.00957707
0.00972104
0.00987922
0.0100772
0.0107246
0.00970201
)
;
    }
    fixedWalls
    {
        type            kqRWallFunction;
        value           nonuniform List<scalar> 
60
(
0.000154418
0.000268479
0.000475083
0.000626935
0.000728346
0.000820333
0.000912901
0.00101521
0.00110705
0.00121096
0.00128289
0.00134782
0.00135321
0.00133264
0.00126395
0.00114716
0.000911642
0.00076197
0.000875992
0.00428818
0.000893388
0.0016071
0.00218701
0.00254945
0.00281522
0.00301447
0.00317797
0.00331493
0.00344123
0.00356176
0.00368826
0.00382745
0.00399316
0.0041972
0.00447839
0.00485803
0.00540271
0.00624868
0.00781532
0.00970201
0.000154418
0.000333351
0.00071726
0.00115873
0.00150277
0.00172178
0.00184613
0.00190245
0.00192009
0.0019082
0.00184902
0.00177775
0.00167917
0.00158491
0.00148723
0.00139865
0.00132222
0.00124485
0.00105941
0.000893388
)
;
    }
    frontAndBack
    {
        type            empty;
    }
}


// ************************************************************************* //
