/*--------------------------------*- C++ -*----------------------------------*\
| =========                 |                                                 |
| \\      /  F ield         | OpenFOAM: The Open Source CFD Toolbox           |
|  \\    /   O peration     | Version:  4.1                                   |
|   \\  /    A nd           | Web:      www.OpenFOAM.org                      |
|    \\/     M anipulation  |                                                 |
\*---------------------------------------------------------------------------*/
FoamFile
{
    version     2.0;
    format      ascii;
    class       volScalarField;
    location    "7";
    object      nut;
}
// * * * * * * * * * * * * * * * * * * * * * * * * * * * * * * * * * * * * * //

dimensions      [0 2 -1 0 0 0 0];

internalField   nonuniform List<scalar> 
400
(
6.98039e-06
1.02584e-05
1.50467e-05
1.91225e-05
2.17746e-05
2.33053e-05
2.41303e-05
2.44945e-05
2.46072e-05
2.45292e-05
2.41455e-05
2.36748e-05
2.30087e-05
2.23536e-05
2.16539e-05
2.09994e-05
2.04176e-05
1.98114e-05
1.8277e-05
1.67834e-05
9.20534e-06
1.7e-05
2.08866e-05
2.13606e-05
2.19065e-05
1.97253e-05
1.89902e-05
1.83444e-05
1.88688e-05
2.00957e-05
2.11929e-05
2.22129e-05
2.40245e-05
2.50244e-05
2.71611e-05
2.84519e-05
2.92208e-05
2.90232e-05
2.65635e-05
2.25095e-05
1.22454e-05
2.21827e-05
2.21614e-05
2.21835e-05
1.72124e-05
1.67526e-05
1.62046e-05
1.66042e-05
1.66644e-05
1.66307e-05
1.64793e-05
1.58069e-05
1.58403e-05
1.60098e-05
1.70977e-05
1.91242e-05
2.19638e-05
2.55116e-05
2.81175e-05
2.62575e-05
1.40664e-05
2.33408e-05
2.29222e-05
1.83499e-05
1.56442e-05
1.52779e-05
1.48667e-05
1.4839e-05
1.39462e-05
1.3374e-05
1.26813e-05
1.23356e-05
1.13508e-05
1.13575e-05
1.14679e-05
1.30282e-05
1.64606e-05
2.1099e-05
2.72917e-05
2.83489e-05
1.51611e-05
2.44638e-05
2.14987e-05
1.58129e-05
1.47038e-05
1.46439e-05
1.43042e-05
1.43274e-05
1.42993e-05
1.44669e-05
1.42705e-05
1.41401e-05
1.2947e-05
1.19841e-05
1.0753e-05
1.05749e-05
1.29071e-05
1.80721e-05
2.55652e-05
2.97893e-05
1.60891e-05
2.50947e-05
1.95455e-05
1.49745e-05
1.43132e-05
1.45147e-05
1.49317e-05
1.59028e-05
1.74917e-05
1.87051e-05
1.92176e-05
1.93306e-05
1.80728e-05
1.62678e-05
1.35309e-05
1.08962e-05
1.1103e-05
1.59465e-05
2.48995e-05
3.08249e-05
1.69722e-05
2.46689e-05
1.82064e-05
1.45116e-05
1.42309e-05
1.49909e-05
1.67539e-05
1.89961e-05
2.21275e-05
2.41242e-05
2.51724e-05
2.55023e-05
2.44087e-05
2.21666e-05
1.8358e-05
1.34692e-05
1.07424e-05
1.42167e-05
2.4066e-05
3.16495e-05
1.78973e-05
2.27062e-05
1.74356e-05
1.43976e-05
1.475e-05
1.614e-05
1.90753e-05
2.23785e-05
2.63217e-05
2.84071e-05
2.93136e-05
2.95608e-05
2.84041e-05
2.67405e-05
2.33924e-05
1.69518e-05
1.12868e-05
1.32293e-05
2.39262e-05
3.2324e-05
1.86892e-05
2.19876e-05
1.70542e-05
1.45295e-05
1.50681e-05
1.70722e-05
2.09664e-05
2.51946e-05
2.94324e-05
3.15875e-05
3.22109e-05
3.22841e-05
3.11256e-05
2.95134e-05
2.69487e-05
2.07447e-05
1.24617e-05
1.22548e-05
2.38416e-05
3.2934e-05
1.95465e-05
1.98789e-05
1.69551e-05
1.46383e-05
1.6014e-05
1.85361e-05
2.28108e-05
2.74622e-05
3.16191e-05
3.38421e-05
3.42788e-05
3.40117e-05
3.29434e-05
3.1313e-05
2.85967e-05
2.33539e-05
1.35194e-05
1.17455e-05
2.39023e-05
3.35057e-05
2.01183e-05
1.90202e-05
1.6807e-05
1.50824e-05
1.61765e-05
1.87117e-05
2.28576e-05
2.75349e-05
3.18615e-05
3.45271e-05
3.54194e-05
3.46916e-05
3.36903e-05
3.21351e-05
2.94487e-05
2.48091e-05
1.40307e-05
1.10018e-05
2.39868e-05
3.40956e-05
2.06213e-05
1.75411e-05
1.66451e-05
1.51707e-05
1.63277e-05
1.87695e-05
2.24896e-05
2.69204e-05
3.10686e-05
3.38777e-05
3.51497e-05
3.45076e-05
3.37946e-05
3.22706e-05
2.96283e-05
2.53495e-05
1.41277e-05
1.0586e-05
2.40562e-05
3.47331e-05
2.0662e-05
1.63685e-05
1.61822e-05
1.52065e-05
1.63299e-05
1.84495e-05
2.15561e-05
2.5381e-05
2.91044e-05
3.19579e-05
3.36153e-05
3.31823e-05
3.25483e-05
3.13147e-05
2.88761e-05
2.51046e-05
1.40185e-05
1.02938e-05
2.42466e-05
3.54771e-05
2.05042e-05
1.63501e-05
1.54968e-05
1.51773e-05
1.6111e-05
1.77022e-05
1.99181e-05
2.27782e-05
2.58893e-05
2.86625e-05
3.05893e-05
3.0714e-05
3.03931e-05
2.98473e-05
2.73957e-05
2.28736e-05
1.25612e-05
9.42756e-06
2.44567e-05
3.63722e-05
1.99682e-05
1.6586e-05
1.4943e-05
1.47326e-05
1.55532e-05
1.68725e-05
1.8376e-05
2.02042e-05
2.23434e-05
2.42861e-05
2.65868e-05
2.70523e-05
2.7326e-05
2.75954e-05
2.48923e-05
1.92099e-05
1.08079e-05
9.32444e-06
2.54064e-05
3.75708e-05
1.90222e-05
1.78236e-05
1.52172e-05
1.42428e-05
1.47522e-05
1.58237e-05
1.6915e-05
1.82025e-05
1.95073e-05
2.14495e-05
2.30171e-05
2.38476e-05
2.38015e-05
2.33149e-05
1.98378e-05
1.3747e-05
8.31928e-06
9.20918e-06
2.6983e-05
3.91307e-05
1.69553e-05
1.80144e-05
1.64731e-05
1.53077e-05
1.47951e-05
1.50578e-05
1.54414e-05
1.59641e-05
1.63212e-05
1.67862e-05
1.70783e-05
1.69385e-05
1.63333e-05
1.47353e-05
1.15824e-05
8.22865e-06
6.48232e-06
1.03465e-05
2.96039e-05
4.12659e-05
1.54994e-05
1.84063e-05
1.75284e-05
1.58794e-05
1.45522e-05
1.33499e-05
1.21271e-05
1.09936e-05
9.83632e-06
8.742e-06
7.99784e-06
7.28168e-06
6.81346e-06
6.17985e-06
5.92868e-06
6.2005e-06
7.91063e-06
1.45265e-05
3.41611e-05
4.43791e-05
1.66181e-05
1.49849e-05
1.42198e-05
1.31736e-05
1.20532e-05
1.12129e-05
1.07858e-05
1.06543e-05
1.07074e-05
1.1035e-05
1.14498e-05
1.23748e-05
1.31573e-05
1.48238e-05
1.61538e-05
1.87575e-05
2.19022e-05
2.90351e-05
4.47828e-05
4.96314e-05
3.67649e-05
4.61529e-05
5.12392e-05
5.29454e-05
5.33381e-05
5.33826e-05
5.33717e-05
5.34053e-05
5.34577e-05
5.35908e-05
5.3703e-05
5.39357e-05
5.41645e-05
5.44875e-05
5.49409e-05
5.53523e-05
5.58008e-05
5.63574e-05
5.81395e-05
5.52983e-05
)
;

boundaryField
{
    movingWall
    {
        type            nutkWallFunction;
        Cmu             0.09;
        kappa           0.41;
        E               9.8;
        value           nonuniform List<scalar> 
20
(
0
0
6.57211e-07
9.37679e-07
1.00218e-06
1.00969e-06
1.00802e-06
1.01356e-06
1.02212e-06
1.04382e-06
1.06214e-06
1.10007e-06
1.13731e-06
1.19e-06
1.2639e-06
1.33092e-06
1.4039e-06
1.49431e-06
1.78295e-06
1.32209e-06
)
;
    }
    fixedWalls
    {
        type            nutkWallFunction;
        Cmu             0.09;
        kappa           0.41;
        E               9.8;
        value           nonuniform List<scalar> 
60
(
0
0
0
0
0
0
0
0
0
0
0
0
0
0
0
0
0
0
0
0
0
0
0
0
0
0
0
0
0
0
0
0
0
0
0
0
0
0
3.91819e-07
1.32209e-06
0
0
0
0
0
0
0
0
0
0
0
0
0
0
0
0
0
0
0
0
)
;
    }
    frontAndBack
    {
        type            empty;
    }
}


// ************************************************************************* //
