/*--------------------------------*- C++ -*----------------------------------*\
| =========                 |                                                 |
| \\      /  F ield         | OpenFOAM: The Open Source CFD Toolbox           |
|  \\    /   O peration     | Version:  4.1                                   |
|   \\  /    A nd           | Web:      www.OpenFOAM.org                      |
|    \\/     M anipulation  |                                                 |
\*---------------------------------------------------------------------------*/
FoamFile
{
    version     2.0;
    format      ascii;
    class       volScalarField;
    location    "7";
    object      p;
}
// * * * * * * * * * * * * * * * * * * * * * * * * * * * * * * * * * * * * * //

dimensions      [0 2 -2 0 0 0 0];

internalField   nonuniform List<scalar> 
400
(
8.95419e-08
-0.000109084
-0.000274302
-0.000845285
-0.00208323
-0.00392698
-0.00603529
-0.0080388
-0.00966911
-0.0107944
-0.0113045
-0.0110993
-0.0100951
-0.00821846
-0.00542754
-0.00182228
0.00226857
0.00605961
0.00852073
0.00924561
0.00016329
-1.57082e-05
-0.000410694
-0.00133643
-0.00289349
-0.0049073
-0.00702691
-0.00895643
-0.0105335
-0.0116106
-0.0120972
-0.0119425
-0.0111005
-0.00946117
-0.00697532
-0.00366342
0.000246268
0.0041503
0.00696438
0.0081114
0.000126979
-0.000285597
-0.00112117
-0.00256033
-0.00454935
-0.00676107
-0.00887088
-0.010722
-0.0122025
-0.0131611
-0.0135778
-0.013433
-0.0127002
-0.0113326
-0.00927107
-0.00647964
-0.00300701
0.000825722
0.00400324
0.00559594
-0.000479404
-0.00114471
-0.00245146
-0.00440973
-0.00674548
-0.00905661
-0.0110945
-0.0127253
-0.0138838
-0.0146031
-0.014898
-0.0147534
-0.0141478
-0.0130569
-0.0114435
-0.00925452
-0.00643254
-0.00300692
0.000217235
0.00197577
-0.00178108
-0.00264906
-0.00429348
-0.00657525
-0.00901277
-0.0111926
-0.0129576
-0.0142853
-0.015198
-0.0157463
-0.015948
-0.0158031
-0.0153051
-0.0144421
-0.0131941
-0.0115242
-0.00936162
-0.00658182
-0.00363283
-0.00192348
-0.00364427
-0.00458108
-0.00634997
-0.0086797
-0.0109841
-0.0129001
-0.0143655
-0.0154335
-0.0161695
-0.0166113
-0.0167709
-0.016651
-0.0162462
-0.0155536
-0.0145682
-0.0132794
-0.0116696
-0.00954076
-0.00714173
-0.00553206
-0.00565493
-0.00657533
-0.00829711
-0.0104877
-0.0125445
-0.0141763
-0.0153864
-0.0162722
-0.0168933
-0.0172753
-0.0174227
-0.0173347
-0.0170065
-0.0164411
-0.015645
-0.0146182
-0.0134028
-0.0118026
-0.00998196
-0.00855383
-0.0074527
-0.00829184
-0.00988234
-0.0118807
-0.0136818
-0.0150725
-0.0160986
-0.0168631
-0.0174099
-0.017755
-0.0178989
-0.0178387
-0.0175703
-0.0170985
-0.0164396
-0.0155847
-0.0146438
-0.0134135
-0.0121031
-0.0108656
-0.00878167
-0.00955211
-0.0109963
-0.0128203
-0.0144191
-0.0156403
-0.0165487
-0.0172373
-0.0177371
-0.0180581
-0.0181994
-0.0181576
-0.0179303
-0.0175202
-0.0169559
-0.0161952
-0.0154598
-0.0144438
-0.0134995
-0.0124612
-0.00957083
-0.0102593
-0.011594
-0.0132986
-0.0147731
-0.0159062
-0.0167573
-0.0174072
-0.0178814
-0.0181881
-0.0183262
-0.0182925
-0.0180868
-0.0177063
-0.0172008
-0.0164614
-0.0158864
-0.0149171
-0.0142994
-0.0133509
-0.00978502
-0.0104319
-0.0116913
-0.0133277
-0.0147599
-0.0158853
-0.0167345
-0.0173782
-0.0178462
-0.018148
-0.0182829
-0.0182473
-0.0180437
-0.0176647
-0.0171717
-0.0164151
-0.0159229
-0.0148744
-0.0145727
-0.0135443
-0.00944963
-0.010084
-0.0113084
-0.0129215
-0.0143954
-0.0155761
-0.016473
-0.0171461
-0.0176311
-0.0179402
-0.0180744
-0.0180285
-0.017808
-0.0174046
-0.0168685
-0.0160952
-0.015529
-0.0144168
-0.0143411
-0.0130505
-0.00869559
-0.00932269
-0.0105243
-0.0121114
-0.0136855
-0.0149733
-0.015965
-0.0167062
-0.0172354
-0.0175673
-0.0177056
-0.0176425
-0.0173872
-0.0169276
-0.0163121
-0.0154753
-0.0147431
-0.0135991
-0.0135742
-0.0119658
-0.00767507
-0.00825095
-0.00940069
-0.0109411
-0.0126078
-0.0140441
-0.0151828
-0.016041
-0.0166511
-0.0170279
-0.0171796
-0.0170959
-0.0167886
-0.0162428
-0.0155092
-0.0145425
-0.0136019
-0.0124152
-0.0123383
-0.010487
-0.00659021
-0.00704109
-0.00804323
-0.00948433
-0.0111797
-0.0127744
-0.0141059
-0.0151357
-0.0158721
-0.0163233
-0.0165031
-0.0164
-0.0160263
-0.0153665
-0.0144727
-0.0133162
-0.0121484
-0.0108558
-0.010698
-0.0086712
-0.00561948
-0.0057992
-0.00653923
-0.00779086
-0.00943371
-0.0111599
-0.0127145
-0.0139664
-0.0148819
-0.0154474
-0.0156774
-0.0155633
-0.0151263
-0.0143401
-0.0132555
-0.0118692
-0.0104331
-0.0089066
-0.00859702
-0.00615036
-0.00494462
-0.00476464
-0.00508768
-0.00601645
-0.00750877
-0.00929481
-0.0110601
-0.0125597
-0.0137021
-0.0144333
-0.0147649
-0.0146842
-0.0141991
-0.0132919
-0.0120054
-0.0103462
-0.00852508
-0.00651955
-0.00558279
-0.001307
-0.00446996
-0.00386463
-0.00374241
-0.00429109
-0.00559153
-0.00739297
-0.0093188
-0.0110222
-0.0123731
-0.013288
-0.0137433
-0.0137224
-0.013237
-0.0122724
-0.0108236
-0.00885934
-0.0064578
-0.00347461
-0.000528328
0.00877912
-0.0056948
-0.00381447
-0.00299545
-0.00309839
-0.0042124
-0.00601831
-0.00805189
-0.00992683
-0.0114361
-0.0124977
-0.0130625
-0.0131328
-0.0126733
-0.0116727
-0.0100216
-0.00759792
-0.00425844
0.000599296
0.00738798
0.0246215
-0.000916008
0.000695119
-0.000238953
-0.00147576
-0.00306898
-0.00506188
-0.00721219
-0.00923604
-0.0108672
-0.0120106
-0.0126097
-0.0126638
-0.0121282
-0.0109705
-0.00908818
-0.00629512
-0.00162347
0.00582396
0.0172296
0.036241
)
;

boundaryField
{
    movingWall
    {
        type            zeroGradient;
    }
    fixedWalls
    {
        type            zeroGradient;
    }
    frontAndBack
    {
        type            empty;
    }
}


// ************************************************************************* //
