/*--------------------------------*- C++ -*----------------------------------*\
| =========                 |                                                 |
| \\      /  F ield         | OpenFOAM: The Open Source CFD Toolbox           |
|  \\    /   O peration     | Version:  4.1                                   |
|   \\  /    A nd           | Web:      www.OpenFOAM.org                      |
|    \\/     M anipulation  |                                                 |
\*---------------------------------------------------------------------------*/
FoamFile
{
    version     2.0;
    format      ascii;
    class       surfaceScalarField;
    location    "7";
    object      phi;
}
// * * * * * * * * * * * * * * * * * * * * * * * * * * * * * * * * * * * * * //

dimensions      [0 3 -1 0 0 0 0];

internalField   nonuniform List<scalar> 
760
(
-3.60226e-08
3.60139e-08
-5.25169e-07
4.89146e-07
-1.51413e-06
9.88957e-07
-2.85183e-06
1.3377e-06
-4.2662e-06
1.41437e-06
-5.59728e-06
1.33108e-06
-6.74187e-06
1.1446e-06
-7.66335e-06
9.21479e-07
-8.33628e-06
6.72923e-07
-8.80281e-06
4.66531e-07
-9.05289e-06
2.50087e-07
-9.10738e-06
5.44886e-08
-8.9317e-06
-1.75686e-07
-8.53366e-06
-3.98036e-07
-7.82662e-06
-7.07039e-07
-6.76595e-06
-1.06067e-06
-5.27531e-06
-1.49065e-06
-3.40551e-06
-1.8698e-06
-1.46159e-06
-1.94392e-06
-1.46159e-06
-6.58851e-07
6.94865e-07
-1.73019e-06
1.56048e-06
-3.08261e-06
2.34138e-06
-4.46548e-06
2.72058e-06
-5.75343e-06
2.70232e-06
-6.85423e-06
2.43187e-06
-7.73454e-06
2.02491e-06
-8.39875e-06
1.58569e-06
-8.894e-06
1.16817e-06
-9.19903e-06
7.71569e-07
-9.32031e-06
3.71363e-07
-9.23024e-06
-3.55848e-08
-9.00847e-06
-3.97449e-07
-8.58276e-06
-8.23747e-07
-7.93674e-06
-1.35306e-06
-6.98969e-06
-2.00772e-06
-5.67762e-06
-2.80272e-06
-3.93453e-06
-3.61288e-06
-1.9004e-06
-3.97806e-06
-3.36199e-06
-1.11106e-06
1.80592e-06
-2.4471e-06
2.89652e-06
-3.78583e-06
3.68011e-06
-4.99723e-06
3.93197e-06
-6.01658e-06
3.72166e-06
-6.80032e-06
3.21562e-06
-7.3701e-06
2.59468e-06
-7.72651e-06
1.94211e-06
-7.92122e-06
1.36288e-06
-7.96171e-06
8.12056e-07
-7.91831e-06
3.27962e-07
-7.80477e-06
-1.49117e-07
-7.58629e-06
-6.1593e-07
-7.24852e-06
-1.16152e-06
-6.78009e-06
-1.82149e-06
-6.11178e-06
-2.67603e-06
-5.15916e-06
-3.75534e-06
-3.78144e-06
-4.9906e-06
-1.9974e-06
-5.76209e-06
-5.35939e-06
-1.28672e-06
3.09264e-06
-2.61842e-06
4.22822e-06
-3.79507e-06
4.85676e-06
-4.75922e-06
4.89612e-06
-5.4492e-06
4.41164e-06
-5.86432e-06
3.63075e-06
-6.06033e-06
2.79069e-06
-6.12237e-06
2.00415e-06
-6.11866e-06
1.35917e-06
-6.08872e-06
7.82112e-07
-6.02302e-06
2.62261e-07
-5.91924e-06
-2.52899e-07
-5.74583e-06
-7.8934e-07
-5.50726e-06
-1.40009e-06
-5.19107e-06
-2.13767e-06
-4.78368e-06
-3.08343e-06
-4.19994e-06
-4.33908e-06
-3.23867e-06
-5.95186e-06
-1.80577e-06
-7.19499e-06
-7.16517e-06
-1.19984e-06
4.29249e-06
-2.3543e-06
5.38267e-06
-3.30817e-06
5.81063e-06
-3.99098e-06
5.57893e-06
-4.37088e-06
4.79154e-06
-4.51835e-06
3.77821e-06
-4.55315e-06
2.82549e-06
-4.563e-06
2.01399e-06
-4.54791e-06
1.34408e-06
-4.51347e-06
7.47672e-07
-4.45252e-06
2.01304e-07
-4.35109e-06
-3.54328e-07
-4.20153e-06
-9.38897e-07
-4.006e-06
-1.59562e-06
-3.76838e-06
-2.37529e-06
-3.48971e-06
-3.36211e-06
-3.15372e-06
-4.67506e-06
-2.5442e-06
-6.56139e-06
-1.49466e-06
-8.24453e-06
-8.65982e-06
-9.82526e-07
5.27501e-06
-1.90591e-06
6.30606e-06
-2.61703e-06
6.52175e-06
-3.06906e-06
6.03097e-06
-3.26622e-06
4.9887e-06
-3.32747e-06
3.83946e-06
-3.34165e-06
2.83967e-06
-3.35822e-06
2.03057e-06
-3.37054e-06
1.35641e-06
-3.36802e-06
7.45151e-07
-3.33255e-06
1.65835e-07
-3.25601e-06
-4.30873e-07
-3.12805e-06
-1.06686e-06
-2.94794e-06
-1.77572e-06
-2.72859e-06
-2.59464e-06
-2.49613e-06
-3.59457e-06
-2.2862e-06
-4.88499e-06
-1.97217e-06
-6.87542e-06
-1.18299e-06
-9.03371e-06
-9.84281e-06
-7.35386e-07
6.0104e-06
-1.39263e-06
6.9633e-06
-1.88814e-06
7.01726e-06
-2.18295e-06
6.32578e-06
-2.3035e-06
5.10926e-06
-2.34346e-06
3.87942e-06
-2.371e-06
2.8672e-06
-2.40726e-06
2.06684e-06
-2.43751e-06
1.38666e-06
-2.45136e-06
7.59005e-07
-2.43386e-06
1.48331e-07
-2.38017e-06
-4.84564e-07
-2.28303e-06
-1.164e-06
-2.13959e-06
-1.91916e-06
-1.95897e-06
-2.77526e-06
-1.75313e-06
-3.80041e-06
-1.57732e-06
-5.0608e-06
-1.41194e-06
-7.0408e-06
-9.37569e-07
-9.50808e-06
-1.07804e-05
-4.55747e-07
6.46614e-06
-8.9419e-07
7.40175e-06
-1.22126e-06
7.34433e-06
-1.40784e-06
6.51236e-06
-1.49e-06
5.19141e-06
-1.52678e-06
3.9162e-06
-1.56528e-06
2.9057e-06
-1.60789e-06
2.10945e-06
-1.64137e-06
1.42013e-06
-1.6584e-06
7.7604e-07
-1.65092e-06
1.40852e-07
-1.61719e-06
-5.18292e-07
-1.55387e-06
-1.22732e-06
-1.45629e-06
-2.01674e-06
-1.3283e-06
-2.90325e-06
-1.18051e-06
-3.9482e-06
-1.06577e-06
-5.17554e-06
-9.91972e-07
-7.1146e-06
-7.07334e-07
-9.79272e-06
-1.14877e-05
-2.20919e-07
6.68706e-06
-4.39655e-07
7.62048e-06
-6.12213e-07
7.51689e-06
-7.20961e-07
6.62111e-06
-7.78429e-07
5.24888e-06
-8.19747e-07
3.95752e-06
-8.61903e-07
2.94786e-06
-9.00125e-07
2.14767e-06
-9.28773e-07
1.44878e-06
-9.45105e-07
7.92373e-07
-9.46533e-07
1.42279e-07
-9.3284e-07
-5.31985e-07
-9.04201e-07
-1.25596e-06
-8.53888e-07
-2.06705e-06
-7.86604e-07
-2.97053e-06
-6.94501e-07
-4.0403e-06
-6.42329e-07
-5.22772e-06
-6.15766e-07
-7.14116e-06
-5.37882e-07
-9.8706e-06
-1.20256e-05
3.64926e-08
6.65057e-06
-3.34048e-08
7.69038e-06
-8.64605e-08
7.56994e-06
-1.19123e-07
6.65377e-06
-1.44491e-07
5.27425e-06
-1.80845e-07
3.99387e-06
-2.17379e-07
2.9844e-06
-2.45561e-07
2.17585e-06
-2.66959e-07
1.47018e-06
-2.82819e-07
8.08233e-07
-2.9389e-07
1.5335e-07
-3.00464e-07
-5.2541e-07
-3.04745e-07
-1.25168e-06
-3.0677e-07
-2.06503e-06
-2.9616e-07
-2.98114e-06
-2.90576e-07
-4.04589e-06
-3.04661e-07
-5.21363e-06
-3.57291e-07
-7.08854e-06
-3.93974e-07
-9.83392e-06
-1.24196e-05
2.40437e-07
6.41014e-06
3.85167e-07
7.54565e-06
4.84017e-07
7.47109e-06
4.87198e-07
6.65059e-06
4.66832e-07
5.29461e-06
4.34222e-07
4.02649e-06
4.06404e-07
3.01221e-06
3.8745e-07
2.19481e-06
3.72005e-07
1.48562e-06
3.55279e-07
8.24959e-07
3.3324e-07
1.75389e-07
3.04584e-07
-4.96753e-07
2.67364e-07
-1.21446e-06
2.15992e-07
-2.01366e-06
1.72252e-07
-2.9374e-06
7.67682e-08
-3.9504e-06
4.23664e-08
-5.17923e-06
-1.46442e-07
-6.89973e-06
-2.95676e-07
-9.68468e-06
-1.27152e-05
4.6135e-07
5.94879e-06
7.65463e-07
7.24154e-06
9.94287e-07
7.24227e-06
1.06974e-06
6.57514e-06
1.06913e-06
5.29522e-06
1.04682e-06
4.04879e-06
1.03095e-06
3.02809e-06
1.02391e-06
2.20184e-06
1.01572e-06
1.49382e-06
9.98182e-07
8.42498e-07
9.64488e-07
2.09083e-07
9.12603e-07
-4.44868e-07
8.38564e-07
-1.14042e-06
7.47306e-07
-1.9224e-06
6.17471e-07
-2.80757e-06
4.90296e-07
-3.82323e-06
3.02305e-07
-4.99124e-06
9.92143e-09
-6.60734e-06
-1.82318e-07
-9.49244e-06
-1.28976e-05
6.50141e-07
5.29864e-06
1.13765e-06
6.75403e-06
1.50003e-06
6.8799e-06
1.68635e-06
6.38882e-06
1.7307e-06
5.25087e-06
1.72697e-06
4.05252e-06
1.71843e-06
3.03663e-06
1.71426e-06
2.20601e-06
1.70507e-06
1.50301e-06
1.68127e-06
8.66294e-07
1.63272e-06
2.57637e-07
1.55614e-06
-3.68284e-07
1.44499e-06
-1.02928e-06
1.30179e-06
-1.77919e-06
1.1056e-06
-2.61138e-06
9.04105e-07
-3.62173e-06
6.0275e-07
-4.68988e-06
2.68829e-07
-6.27342e-06
-1.93765e-08
-9.20424e-06
-1.29169e-05
8.17004e-07
4.48164e-06
1.46308e-06
6.10795e-06
1.95477e-06
6.38821e-06
2.27952e-06
6.06406e-06
2.40886e-06
5.12154e-06
2.44734e-06
4.01405e-06
2.46063e-06
3.02333e-06
2.46756e-06
2.19908e-06
2.46235e-06
1.50823e-06
2.43578e-06
8.92859e-07
2.37406e-06
3.19357e-07
2.27295e-06
-2.67174e-07
2.12149e-06
-8.77818e-07
1.92282e-06
-1.58052e-06
1.65697e-06
-2.34553e-06
1.35277e-06
-3.31753e-06
9.36304e-07
-4.27342e-06
5.10661e-07
-5.84778e-06
1.15177e-07
-8.80876e-06
-1.28018e-05
8.98833e-07
3.58281e-06
1.72336e-06
5.28342e-06
2.38432e-06
5.72725e-06
2.88274e-06
5.56564e-06
3.16322e-06
4.84105e-06
3.2973e-06
3.87996e-06
3.35478e-06
2.96586e-06
3.37777e-06
2.17608e-06
3.37112e-06
1.51488e-06
3.33392e-06
9.30062e-07
3.25042e-06
4.02852e-07
3.11397e-06
-1.3072e-07
2.91233e-06
-6.76175e-07
2.64951e-06
-1.31771e-06
2.2962e-06
-1.99221e-06
1.86646e-06
-2.8878e-06
1.31833e-06
-3.72529e-06
7.70249e-07
-5.29969e-06
2.59702e-07
-8.29821e-06
-1.25421e-05
9.24741e-07
2.65807e-06
1.81927e-06
4.38889e-06
2.63718e-06
4.90935e-06
3.32942e-06
4.8734e-06
3.81663e-06
4.35384e-06
4.11904e-06
3.57756e-06
4.2888e-06
2.79609e-06
4.3751e-06
2.08979e-06
4.39664e-06
1.49333e-06
4.36446e-06
9.62248e-07
4.26393e-06
5.03378e-07
4.10951e-06
2.3703e-08
3.85343e-06
-4.20096e-07
3.51894e-06
-9.83222e-07
3.0543e-06
-1.52757e-06
2.46445e-06
-2.29794e-06
1.75372e-06
-3.01456e-06
1.0519e-06
-4.59788e-06
4.22098e-07
-7.6684e-06
-1.212e-05
7.0022e-07
1.95785e-06
1.74847e-06
3.34064e-06
2.75912e-06
3.89869e-06
3.6806e-06
3.95192e-06
4.4239e-06
3.61054e-06
4.95693e-06
3.04453e-06
5.30464e-06
2.44838e-06
5.51569e-06
1.87873e-06
5.60296e-06
1.40607e-06
5.61021e-06
9.54994e-07
5.51132e-06
6.02268e-07
5.32095e-06
2.14076e-07
4.99573e-06
-9.48774e-08
4.57185e-06
-5.5934e-07
3.96472e-06
-9.20445e-07
3.19809e-06
-1.53131e-06
2.3247e-06
-2.14117e-06
1.46174e-06
-3.73492e-06
6.24943e-07
-6.8316e-06
-1.1495e-05
2.26313e-07
1.73153e-06
1.18961e-06
2.37735e-06
2.33658e-06
2.75172e-06
3.50096e-06
2.78755e-06
4.52711e-06
2.58439e-06
5.34467e-06
2.22696e-06
5.92998e-06
1.86308e-06
6.331e-06
1.47771e-06
6.55507e-06
1.18199e-06
6.64613e-06
8.63932e-07
6.59206e-06
6.56344e-07
6.43261e-06
3.73529e-07
6.14082e-06
1.96912e-07
5.7015e-06
-1.20024e-07
5.0803e-06
-2.9924e-07
4.3108e-06
-7.61822e-07
3.41413e-06
-1.24449e-06
2.44549e-06
-2.76629e-06
1.15385e-06
-5.53996e-06
-1.03412e-05
-5.1736e-07
2.24889e-06
3.72124e-07
1.48786e-06
1.8076e-06
1.31625e-06
3.27288e-06
1.32227e-06
4.55547e-06
1.30179e-06
5.60848e-06
1.17395e-06
6.43699e-06
1.03456e-06
7.06143e-06
8.53278e-07
7.5177e-06
7.25715e-07
7.80397e-06
5.77669e-07
7.98442e-06
4.7589e-07
8.0148e-06
3.43153e-07
7.9595e-06
2.52207e-07
7.72853e-06
1.10945e-07
7.41385e-06
1.5441e-08
6.93093e-06
-2.78901e-07
6.26985e-06
-5.83413e-07
5.12902e-06
-1.62546e-06
2.83625e-06
-3.24719e-06
-7.50493e-06
2.24889e-06
3.73676e-06
5.053e-06
6.37528e-06
7.67707e-06
8.85102e-06
9.88558e-06
1.07389e-05
1.14646e-05
1.20422e-05
1.25181e-05
1.28613e-05
1.31135e-05
1.32244e-05
1.32399e-05
1.2961e-05
1.23776e-05
1.07521e-05
7.50493e-06
)
;

boundaryField
{
    movingWall
    {
        type            calculated;
        value           uniform 0;
    }
    fixedWalls
    {
        type            calculated;
        value           uniform 0;
    }
    frontAndBack
    {
        type            empty;
        value           nonuniform 0();
    }
}


// ************************************************************************* //
