/*--------------------------------*- C++ -*----------------------------------*\
| =========                 |                                                 |
| \\      /  F ield         | OpenFOAM: The Open Source CFD Toolbox           |
|  \\    /   O peration     | Version:  4.1                                   |
|   \\  /    A nd           | Web:      www.OpenFOAM.org                      |
|    \\/     M anipulation  |                                                 |
\*---------------------------------------------------------------------------*/
FoamFile
{
    version     2.0;
    format      ascii;
    class       volVectorField;
    location    "7";
    object      U;
}
// * * * * * * * * * * * * * * * * * * * * * * * * * * * * * * * * * * * * * //

dimensions      [0 1 -1 0 0 0 0];

internalField   nonuniform List<vector> 
400
(
(0.00152738 -0.00305659 0)
(-0.00315183 0.00219448 0)
(-0.0161363 0.00832824 0)
(-0.0421834 0.0144236 0)
(-0.0728548 0.0157046 0)
(-0.101525 0.0142911 0)
(-0.12663 0.0123093 0)
(-0.146605 0.0099641 0)
(-0.162026 0.0078558 0)
(-0.173124 0.0054799 0)
(-0.180033 0.00343403 0)
(-0.18299 0.00141731 0)
(-0.182509 -0.00168629 0)
(-0.175609 -0.00410913 0)
(-0.164063 -0.00810997 0)
(-0.144617 -0.0120083 0)
(-0.118392 -0.0167391 0)
(-0.0843404 -0.0197457 0)
(-0.0479152 -0.0185615 0)
(-0.0154076 -0.0103618 0)
(-0.00514931 0.00499589 0)
(-0.0207367 0.0192855 0)
(-0.0458991 0.033763 0)
(-0.0760177 0.0410615 0)
(-0.104878 0.0413682 0)
(-0.129362 0.0377776 0)
(-0.148665 0.0321521 0)
(-0.162765 0.0261123 0)
(-0.17492 0.0184219 0)
(-0.182086 0.0125349 0)
(-0.18671 0.00607304 0)
(-0.186913 0.00035398 0)
(-0.184107 -0.0064518 0)
(-0.177144 -0.0138275 0)
(-0.165836 -0.0231965 0)
(-0.148632 -0.0342011 0)
(-0.124992 -0.0470471 0)
(-0.093893 -0.0585169 0)
(-0.05865 -0.0608968 0)
(-0.0209061 -0.046004 0)
(-0.0106118 0.0248246 0)
(-0.0336889 0.0451387 0)
(-0.0622243 0.0605774 0)
(-0.0900631 0.066362 0)
(-0.113609 0.0637707 0)
(-0.131126 0.0559234 0)
(-0.143217 0.045364 0)
(-0.152924 0.0340274 0)
(-0.157881 0.024737 0)
(-0.159297 0.015163 0)
(-0.159573 0.00645899 0)
(-0.157822 -0.00251895 0)
(-0.155395 -0.0116887 0)
(-0.149335 -0.0223112 0)
(-0.141407 -0.0351431 0)
(-0.128861 -0.0515158 0)
(-0.111657 -0.0713533 0)
(-0.0868922 -0.0922555 0)
(-0.0579037 -0.103087 0)
(-0.0218038 -0.0914382 0)
(-0.0131378 0.0489525 0)
(-0.0387882 0.0715728 0)
(-0.0657861 0.0851395 0)
(-0.0890599 0.087544 0)
(-0.10571 0.0806077 0)
(-0.115613 0.0677305 0)
(-0.120993 0.0534184 0)
(-0.122482 0.0396619 0)
(-0.121803 0.0271964 0)
(-0.12255 0.015899 0)
(-0.121348 0.00593694 0)
(-0.120182 -0.00393153 0)
(-0.117283 -0.0140326 0)
(-0.113521 -0.0258555 0)
(-0.107999 -0.0403674 0)
(-0.100811 -0.0594996 0)
(-0.0898251 -0.0843918 0)
(-0.0716699 -0.113837 0)
(-0.0504344 -0.133948 0)
(-0.0193901 -0.129932 0)
(-0.0128319 0.0728537 0)
(-0.0362234 0.0949485 0)
(-0.0595592 0.105698 0)
(-0.0770594 0.104036 0)
(-0.086868 0.0917112 0)
(-0.090265 0.0743437 0)
(-0.0909351 0.0568548 0)
(-0.090717 0.0410478 0)
(-0.0908208 0.027649 0)
(-0.0906959 0.0157467 0)
(-0.0898515 0.00494612 0)
(-0.0884487 -0.00568535 0)
(-0.0859657 -0.0166943 0)
(-0.0826744 -0.0291705 0)
(-0.078481 -0.0442596 0)
(-0.0736359 -0.063972 0)
(-0.067854 -0.0911378 0)
(-0.054177 -0.128368 0)
(-0.0408017 -0.157759 0)
(-0.016319 -0.162016 0)
(-0.0102188 0.0943985 0)
(-0.0301575 0.116364 0)
(-0.0484323 0.122859 0)
(-0.0607021 0.115864 0)
(-0.0656692 0.0980981 0)
(-0.0660325 0.0768717 0)
(-0.0660997 0.0573523 0)
(-0.0664747 0.0409167 0)
(-0.0671689 0.0272776 0)
(-0.0674282 0.0149875 0)
(-0.0672529 0.00352033 0)
(-0.0661804 -0.00808949 0)
(-0.0641958 -0.020308 0)
(-0.0611351 -0.0338198 0)
(-0.0571415 -0.0494324 0)
(-0.0524748 -0.0687892 0)
(-0.0497587 -0.0948157 0)
(-0.0391242 -0.135347 0)
(-0.0345434 -0.175018 0)
(-0.00924208 -0.187354 0)
(-0.00788778 0.112331 0)
(-0.0225545 0.132017 0)
(-0.0355256 0.134681 0)
(-0.0439848 0.123398 0)
(-0.0461021 0.10132 0)
(-0.0458812 0.0777337 0)
(-0.046512 0.0574829 0)
(-0.047431 0.0412394 0)
(-0.0484369 0.0275781 0)
(-0.0489917 0.0150902 0)
(-0.0490922 0.00307302 0)
(-0.0483654 -0.00932894 0)
(-0.046847 -0.0225904 0)
(-0.0444405 -0.0372823 0)
(-0.0412407 -0.0539752 0)
(-0.0364392 -0.0740288 0)
(-0.0357506 -0.098953 0)
(-0.025587 -0.138833 0)
(-0.0275029 -0.186938 0)
(-0.00625128 -0.207816 0)
(-0.00454856 0.124712 0)
(-0.014385 0.144149 0)
(-0.0234363 0.144227 0)
(-0.0287629 0.128897 0)
(-0.0294711 0.103613 0)
(-0.029412 0.0783991 0)
(-0.0304637 0.057977 0)
(-0.0315385 0.0419103 0)
(-0.0325367 0.0281374 0)
(-0.0331127 0.0153631 0)
(-0.0332801 0.0028408 0)
(-0.0328449 -0.0101486 0)
(-0.0318142 -0.0241095 0)
(-0.0301461 -0.0396041 0)
(-0.0283104 -0.0569744 0)
(-0.0236355 -0.0776315 0)
(-0.0253574 -0.102081 0)
(-0.0155226 -0.141464 0)
(-0.0228492 -0.193524 0)
(-0.0018535 -0.223513 0)
(-0.00239646 0.132737 0)
(-0.00699843 0.150455 0)
(-0.011987 0.148689 0)
(-0.0149708 0.131457 0)
(-0.0150664 0.104405 0)
(-0.01534 0.0787246 0)
(-0.016557 0.0585656 0)
(-0.0175289 0.0426224 0)
(-0.0183412 0.0287213 0)
(-0.0188278 0.0156832 0)
(-0.0190332 0.00278417 0)
(-0.0188899 -0.0106091 0)
(-0.0184196 -0.0250214 0)
(-0.0174267 -0.0411154 0)
(-0.0172395 -0.0590818 0)
(-0.0127252 -0.0801597 0)
(-0.0168399 -0.104128 0)
(-0.00695523 -0.142679 0)
(-0.0188077 -0.196546 0)
(0.000438957 -0.235891 0)
(0.00134606 0.134405 0)
(-9.17759e-06 0.154685 0)
(-0.00174118 0.152326 0)
(-0.0026999 0.133614 0)
(-0.00252951 0.105837 0)
(-0.00289075 0.0798156 0)
(-0.00388527 0.0594709 0)
(-0.00457965 0.043318 0)
(-0.00515346 0.0292332 0)
(-0.00554434 0.0160133 0)
(-0.00581702 0.00292113 0)
(-0.00596306 -0.0106538 0)
(-0.00612162 -0.0252094 0)
(-0.00568479 -0.0415044 0)
(-0.00724473 -0.0598463 0)
(-0.00322043 -0.0809562 0)
(-0.0100794 -0.105129 0)
(-8.72604e-05 -0.142153 0)
(-0.0162426 -0.197297 0)
(0.00341629 -0.245054 0)
(0.00336158 0.131916 0)
(0.00607177 0.153196 0)
(0.00818474 0.15084 0)
(0.00905316 0.132835 0)
(0.00964715 0.105372 0)
(0.0094029 0.0798295 0)
(0.00855269 0.0597325 0)
(0.00800354 0.043614 0)
(0.007596 0.0295344 0)
(0.00726837 0.0163182 0)
(0.00688744 0.00324607 0)
(0.00645989 -0.0103066 0)
(0.00561509 -0.0247973 0)
(0.00549341 -0.0409916 0)
(0.00246852 -0.059487 0)
(0.00567226 -0.0802455 0)
(-0.00368837 -0.104418 0)
(0.00641766 -0.139456 0)
(-0.0142833 -0.195766 0)
(0.00549883 -0.251648 0)
(0.00581113 0.125854 0)
(0.012221 0.15024 0)
(0.0170476 0.149132 0)
(0.0200535 0.13367 0)
(0.0214139 0.106488 0)
(0.0215604 0.0810937 0)
(0.0210049 0.0605968 0)
(0.0206572 0.0440842 0)
(0.020439 0.0298616 0)
(0.020188 0.0166952 0)
(0.0196615 0.00381529 0)
(0.0189766 -0.0094978 0)
(0.0173864 -0.0236955 0)
(0.0166629 -0.0395686 0)
(0.0123518 -0.0577176 0)
(0.0143545 -0.0782649 0)
(0.00276241 -0.101978 0)
(0.01231 -0.135395 0)
(-0.0130127 -0.192191 0)
(0.00863436 -0.255611 0)
(0.00773877 0.114305 0)
(0.0176952 0.140971 0)
(0.0262272 0.141368 0)
(0.0310761 0.129961 0)
(0.0341373 0.104863 0)
(0.0349705 0.0802793 0)
(0.0347524 0.0600871 0)
(0.0344809 0.0437254 0)
(0.0342615 0.0297672 0)
(0.0339709 0.0169744 0)
(0.0331611 0.00458029 0)
(0.0322579 -0.00822263 0)
(0.0297886 -0.0218352 0)
(0.0285642 -0.0372171 0)
(0.0227483 -0.0544896 0)
(0.0235983 -0.0749506 0)
(0.00990415 -0.0969152 0)
(0.0182775 -0.129158 0)
(-0.0112125 -0.186468 0)
(0.0119883 -0.257577 0)
(0.0100998 0.100459 0)
(0.0225101 0.131854 0)
(0.0342745 0.135389 0)
(0.0415097 0.126726 0)
(0.0466247 0.105448 0)
(0.0488167 0.0815299 0)
(0.049391 0.0610378 0)
(0.0494915 0.0442951 0)
(0.0493869 0.0302749 0)
(0.0491946 0.0177011 0)
(0.0480579 0.00580367 0)
(0.0470633 -0.00637732 0)
(0.043597 -0.0191535 0)
(0.0418906 -0.0337237 0)
(0.0343833 -0.0497711 0)
(0.0340523 -0.0696143 0)
(0.0178833 -0.089784 0)
(0.02427 -0.121995 0)
(-0.00903208 -0.180627 0)
(0.016462 -0.258199 0)
(0.010664 0.0812869 0)
(0.0262874 0.114261 0)
(0.0412895 0.121636 0)
(0.0519368 0.116704 0)
(0.0599306 0.0999778 0)
(0.0645669 0.0788857 0)
(0.0666944 0.0595261 0)
(0.0676015 0.0432987 0)
(0.0675658 0.0298164 0)
(0.0674549 0.0179322 0)
(0.0656718 0.00699735 0)
(0.0645083 -0.00421304 0)
(0.0597614 -0.0156395 0)
(0.0574356 -0.0289661 0)
(0.0480485 -0.04332 0)
(0.0462337 -0.0619553 0)
(0.0270229 -0.0800667 0)
(0.0309993 -0.112171 0)
(-0.00661317 -0.172556 0)
(0.0213426 -0.258452 0)
(0.0119615 0.0644155 0)
(0.0273047 0.100302 0)
(0.044705 0.110376 0)
(0.0591442 0.10831 0)
(0.0706883 0.0957671 0)
(0.0789258 0.0777475 0)
(0.0839456 0.0599079 0)
(0.0869723 0.0441614 0)
(0.0877005 0.0311156 0)
(0.0883597 0.0197 0)
(0.0859798 0.00963911 0)
(0.0849121 -0.000588422 0)
(0.0789569 -0.0105183 0)
(0.075955 -0.0225017 0)
(0.0646701 -0.0347487 0)
(0.0603228 -0.0516305 0)
(0.0376172 -0.0675746 0)
(0.0386429 -0.100687 0)
(-0.0044103 -0.164244 0)
(0.0272462 -0.256875 0)
(0.00521199 0.0407232 0)
(0.0254899 0.0740479 0)
(0.0456927 0.0870033 0)
(0.0639122 0.0886621 0)
(0.0801372 0.0810053 0)
(0.0930675 0.0680179 0)
(0.101961 0.054049 0)
(0.108639 0.0407484 0)
(0.110924 0.0291592 0)
(0.113356 0.0188629 0)
(0.110668 0.0101899 0)
(0.109907 0.00139941 0)
(0.102399 -0.00644648 0)
(0.0982758 -0.0162044 0)
(0.0847399 -0.025117 0)
(0.0767901 -0.0387176 0)
(0.0507985 -0.0522601 0)
(0.0488496 -0.0860167 0)
(-0.000846289 -0.151332 0)
(0.0351649 -0.247574 0)
(-0.00187387 0.0435566 0)
(0.0129489 0.0648538 0)
(0.0361099 0.0733829 0)
(0.0583519 0.0739334 0)
(0.0789977 0.0681367 0)
(0.0981659 0.0583852 0)
(0.111639 0.0481663 0)
(0.123413 0.0383638 0)
(0.128085 0.0304897 0)
(0.133406 0.0220484 0)
(0.131855 0.0160196 0)
(0.131984 0.00848617 0)
(0.124929 0.00351727 0)
(0.120477 -0.00427637 0)
(0.106805 -0.00960575 0)
(0.0980017 -0.0206328 0)
(0.0724249 -0.0328914 0)
(0.0689349 -0.0668263 0)
(0.0131194 -0.128153 0)
(0.0510929 -0.217345 0)
(-0.00822308 0.0113005 0)
(-0.00751995 0.0163322 0)
(0.0217065 0.0267426 0)
(0.0514089 0.0319671 0)
(0.0769392 0.0326273 0)
(0.101442 0.0294378 0)
(0.119201 0.0256608 0)
(0.135736 0.0201252 0)
(0.145374 0.0163519 0)
(0.154397 0.0118328 0)
(0.157694 0.00923817 0)
(0.160951 0.00522579 0)
(0.159422 0.0032167 0)
(0.157605 -0.00157755 0)
(0.150152 -0.00395788 0)
(0.144726 -0.0114889 0)
(0.127529 -0.0188711 0)
(0.120355 -0.0446699 0)
(0.0617399 -0.0877172 0)
(0.0878683 -0.159359 0)
(0.0475416 0.097912 0)
(0.0532585 0.0577696 0)
(0.0871059 0.0358749 0)
(0.115512 0.0271367 0)
(0.139895 0.0232535 0)
(0.165032 0.0202032 0)
(0.186391 0.0179179 0)
(0.20646 0.0156639 0)
(0.222062 0.0139375 0)
(0.235862 0.0123836 0)
(0.245766 0.0109726 0)
(0.254404 0.00983106 0)
(0.259582 0.00833181 0)
(0.263703 0.00726537 0)
(0.264178 0.00512476 0)
(0.261519 0.00260012 0)
(0.252741 0.000743807 0)
(0.236604 -0.00829891 0)
(0.181072 -0.0206333 0)
(0.168889 -0.116448 0)
)
;

boundaryField
{
    movingWall
    {
        type            fixedValue;
        value           uniform (1 0 0);
    }
    fixedWalls
    {
        type            noSlip;
    }
    frontAndBack
    {
        type            empty;
    }
}


// ************************************************************************* //
