/*--------------------------------*- C++ -*----------------------------------*\
| =========                 |                                                 |
| \\      /  F ield         | OpenFOAM: The Open Source CFD Toolbox           |
|  \\    /   O peration     | Version:  4.1                                   |
|   \\  /    A nd           | Web:      www.OpenFOAM.org                      |
|    \\/     M anipulation  |                                                 |
\*---------------------------------------------------------------------------*/
FoamFile
{
    version     2.0;
    format      ascii;
    class       volScalarField;
    location    "4.5";
    object      epsilon;
}
// * * * * * * * * * * * * * * * * * * * * * * * * * * * * * * * * * * * * * //

dimensions      [0 2 -3 0 0 0 0];

internalField   nonuniform List<scalar> 
400
(
0.000149721
0.000432916
0.001574
0.0037556
0.00623124
0.00822279
0.0096152
0.0103861
0.0107278
0.010815
0.0105698
0.0100373
0.00935841
0.00854692
0.00780761
0.00705132
0.00644676
0.00581473
0.00449019
0.00355371
0.000344811
0.000900944
0.00210582
0.00335453
0.00394382
0.00404734
0.00371917
0.00329575
0.00283776
0.00249574
0.00226175
0.00217648
0.00220991
0.00253191
0.00293968
0.00363496
0.00469474
0.00618996
0.00798133
0.00880158
0.00084188
0.00140305
0.00204519
0.00231266
0.00208997
0.00178348
0.0014611
0.00126222
0.00115778
0.00111649
0.00111057
0.00117229
0.00129011
0.00150039
0.00186736
0.00252266
0.0036968
0.00576623
0.00947245
0.0143064
0.00148278
0.00149481
0.00172191
0.00153112
0.00121071
0.00098436
0.000834874
0.000763344
0.000723655
0.000701577
0.000693516
0.000699825
0.000745503
0.000849557
0.00107682
0.00155599
0.00257271
0.00473137
0.0097054
0.0182708
0.00198141
0.00143087
0.00136065
0.00104374
0.000787935
0.000644547
0.000556391
0.000503103
0.000459548
0.000430116
0.000415838
0.000412476
0.000441901
0.000515274
0.000681816
0.00105593
0.00192626
0.00396991
0.00944622
0.0214423
0.00244411
0.00129148
0.00106218
0.000751467
0.000560498
0.000458722
0.000389178
0.000339324
0.000299975
0.000277373
0.000268047
0.000267163
0.000291624
0.00034368
0.000456209
0.00072654
0.00146031
0.00342592
0.00916711
0.0239956
0.00296367
0.00114073
0.000843072
0.000575097
0.000429798
0.000349217
0.000289894
0.000247646
0.000217554
0.000202061
0.000196143
0.000198158
0.000216527
0.000253165
0.000329699
0.000517693
0.00110316
0.00293622
0.00896038
0.026242
0.00351679
0.00102969
0.000686984
0.000467809
0.00035341
0.000284965
0.000233684
0.000198411
0.000174156
0.000160235
0.000153972
0.000152778
0.000163041
0.000187123
0.000240132
0.000371644
0.000841849
0.00254385
0.00883885
0.0282451
0.00404198
0.000943945
0.00057942
0.000402195
0.000309053
0.000247906
0.000202081
0.000170699
0.000148411
0.000132718
0.00012305
0.000119249
0.000123367
0.000140584
0.00018095
0.00027412
0.00063095
0.00217576
0.00879338
0.0301838
0.00468211
0.000927117
0.000511892
0.000360838
0.000282666
0.000226263
0.000183626
0.000153775
0.000131321
0.000113731
0.000101602
9.64666e-05
9.92549e-05
0.000114095
0.000147814
0.000226046
0.000497824
0.00189854
0.00878451
0.0321155
0.0051352
0.000982917
0.000463506
0.000335155
0.000267327
0.00021415
0.000173134
0.000143444
0.000120598
0.000102492
9.00075e-05
8.48679e-05
8.82842e-05
0.000101983
0.000131814
0.000204114
0.000423488
0.00167525
0.00886852
0.0341866
0.0055425
0.00113849
0.000465804
0.000317367
0.000256549
0.00020681
0.000167743
0.000139135
0.000117147
9.96286e-05
8.70855e-05
8.20394e-05
8.50971e-05
9.79717e-05
0.000126416
0.000197266
0.00039407
0.00156926
0.00893137
0.0365124
0.00554762
0.00138462
0.000492689
0.000318406
0.000253199
0.000205788
0.00016854
0.000140693
0.00011943
0.000102598
9.01669e-05
8.54255e-05
8.78005e-05
9.9215e-05
0.000126681
0.00019783
0.000386598
0.00153348
0.0090789
0.0393076
0.00540176
0.00166075
0.000563847
0.000330924
0.000256477
0.00020853
0.00017246
0.000145987
0.00012631
0.000111057
9.89396e-05
9.46088e-05
9.71227e-05
0.000109132
0.000138679
0.000216622
0.000408085
0.00159323
0.00977737
0.0428183
0.0049431
0.00189618
0.000683299
0.000367628
0.000270101
0.000217598
0.00018151
0.000156568
0.00013899
0.000126289
0.000115081
0.000111092
0.00011382
0.000126809
0.000159733
0.000249981
0.00046981
0.00183548
0.0114345
0.0475278
0.00424549
0.00195583
0.000867373
0.000459987
0.000309103
0.000241895
0.000201434
0.000175552
0.000158291
0.000147487
0.000138117
0.000137146
0.000141375
0.000158886
0.000203853
0.000324489
0.000616532
0.00239495
0.0139727
0.0541607
0.002937
0.00177664
0.000937535
0.000557384
0.000389966
0.000303244
0.000252422
0.000222215
0.000204788
0.000196589
0.000196798
0.000202523
0.000217746
0.000258273
0.000348452
0.000558354
0.00106926
0.003866
0.0188043
0.0639025
0.00249129
0.00158946
0.00115552
0.000864448
0.000713342
0.000631231
0.000588905
0.000581926
0.000591743
0.000621046
0.000671255
0.000750282
0.000848256
0.000983026
0.00121586
0.0018
0.00325674
0.00909867
0.030326
0.0798975
0.00340841
0.00510725
0.00653671
0.00703408
0.00731832
0.00758867
0.00789312
0.00827763
0.00867646
0.00920053
0.0096912
0.0104625
0.0110962
0.0123536
0.0133938
0.0160852
0.0219235
0.0367683
0.0701627
0.112249
0.0439623
0.0885288
0.123499
0.13892
0.144858
0.147094
0.148041
0.148713
0.14901
0.149576
0.150003
0.150974
0.151896
0.153876
0.156084
0.159525
0.162998
0.167394
0.182277
0.156093
)
;

boundaryField
{
    movingWall
    {
        Cmu             0.09;
        kappa           0.41;
        E               9.8;
        type            epsilonWallFunction;
        value           nonuniform List<scalar> 
20
(
0.0439623
0.0885288
0.123499
0.13892
0.144858
0.147094
0.148041
0.148713
0.14901
0.149576
0.150003
0.150974
0.151896
0.153876
0.156084
0.159525
0.162998
0.167394
0.182277
0.156093
)
;
    }
    fixedWalls
    {
        Cmu             0.09;
        kappa           0.41;
        E               9.8;
        type            epsilonWallFunction;
        value           nonuniform List<scalar> 
60
(
0.000149721
0.000344811
0.00084188
0.00148278
0.00198141
0.00244411
0.00296367
0.00351679
0.00404198
0.00468211
0.0051352
0.0055425
0.00554762
0.00540176
0.0049431
0.00424549
0.002937
0.00249129
0.00340841
0.0439623
0.00355371
0.00880158
0.0143064
0.0182708
0.0214423
0.0239956
0.026242
0.0282451
0.0301838
0.0321155
0.0341866
0.0365124
0.0393076
0.0428183
0.0475278
0.0541607
0.0639025
0.0798975
0.112249
0.156093
0.000149721
0.000432916
0.001574
0.0037556
0.00623124
0.00822279
0.0096152
0.0103861
0.0107278
0.010815
0.0105698
0.0100373
0.00935841
0.00854692
0.00780761
0.00705132
0.00644676
0.00581473
0.00449019
0.00355371
)
;
    }
    frontAndBack
    {
        type            empty;
    }
}


// ************************************************************************* //
