/*--------------------------------*- C++ -*----------------------------------*\
| =========                 |                                                 |
| \\      /  F ield         | OpenFOAM: The Open Source CFD Toolbox           |
|  \\    /   O peration     | Version:  4.1                                   |
|   \\  /    A nd           | Web:      www.OpenFOAM.org                      |
|    \\/     M anipulation  |                                                 |
\*---------------------------------------------------------------------------*/
FoamFile
{
    version     2.0;
    format      ascii;
    class       volScalarField;
    location    "4.5";
    object      k;
}
// * * * * * * * * * * * * * * * * * * * * * * * * * * * * * * * * * * * * * //

dimensions      [0 2 -2 0 0 0 0];

internalField   nonuniform List<scalar> 
400
(
9.56707e-05
0.00019414
0.000459007
0.000819552
0.00114854
0.00138174
0.00153357
0.00161442
0.0016496
0.00165852
0.00163329
0.00157794
0.00150593
0.00141756
0.00133457
0.00124698
0.0011747
0.00109666
0.000923095
0.000789726
0.000166802
0.000364172
0.000640476
0.000831379
0.000918264
0.000920392
0.000852735
0.000807115
0.000758346
0.000735387
0.000725665
0.000729519
0.000774709
0.000833141
0.000933904
0.0010594
0.00122066
0.00138001
0.00148569
0.00144558
0.000302386
0.000549651
0.00066936
0.000714918
0.000624829
0.000584177
0.000544158
0.000528303
0.000522313
0.000521486
0.000528805
0.000536609
0.000559975
0.000596233
0.000667643
0.000787346
0.000985801
0.00128144
0.00167734
0.00199827
0.000440986
0.000598136
0.000626248
0.000550583
0.000488265
0.000463793
0.000452637
0.00044892
0.000445835
0.000436702
0.000428075
0.000422061
0.000420377
0.000435852
0.000481748
0.000580407
0.000770408
0.00110404
0.00169499
0.00235205
0.000534995
0.000588059
0.000546617
0.000456747
0.000419591
0.000405116
0.000398452
0.000391377
0.000380318
0.000367659
0.00035557
0.000348336
0.000345337
0.000352023
0.000381839
0.000462301
0.000638324
0.000976502
0.00165026
0.00261677
0.00061529
0.000563453
0.000475592
0.000401123
0.000374157
0.000362696
0.000355071
0.000345126
0.000333758
0.000322782
0.000314986
0.00031112
0.000309711
0.000314772
0.000331717
0.000383932
0.000536992
0.000882534
0.00162483
0.00282044
0.00069961
0.000522328
0.000421837
0.000363394
0.000342854
0.000333772
0.000326306
0.000317226
0.000307477
0.000298025
0.000291539
0.000288769
0.000288462
0.000293092
0.000303731
0.00033433
0.000454845
0.000789953
0.00160576
0.00299365
0.000784126
0.000479586
0.000380972
0.000337656
0.000323533
0.000316937
0.000310441
0.000301947
0.000291148
0.000278948
0.000268204
0.000262319
0.000260391
0.000265204
0.000276901
0.000297213
0.000392648
0.000711268
0.00159716
0.00314392
0.00086037
0.000453185
0.00035442
0.000320535
0.00031248
0.000308266
0.000301979
0.000292032
0.000277516
0.000259763
0.000242747
0.00023283
0.000229686
0.000236777
0.000254557
0.000277224
0.000343333
0.000634627
0.00159495
0.00328598
0.000948912
0.000427021
0.000331567
0.00030857
0.000306793
0.000303651
0.000296209
0.000283746
0.000265211
0.000242537
0.000221357
0.000210797
0.000209486
0.00022056
0.000241224
0.000269458
0.000316576
0.00057533
0.00160085
0.0034245
0.00100915
0.000429186
0.000318098
0.000298823
0.000301498
0.00029933
0.000291076
0.000276801
0.000256268
0.000231993
0.00021061
0.000200013
0.000201747
0.000214482
0.000235628
0.000267988
0.000303914
0.000524423
0.00161204
0.00356996
0.0010618
0.000441964
0.00030802
0.000290887
0.000295746
0.000294383
0.000286848
0.000272226
0.000252948
0.000230893
0.000210822
0.000199701
0.000201444
0.000213961
0.000235194
0.000274733
0.000300191
0.000493018
0.00162163
0.00372989
0.00106242
0.000468361
0.000309254
0.000283483
0.000287788
0.000287103
0.000281939
0.000270464
0.000254462
0.00023519
0.00021725
0.000207809
0.000209933
0.000222668
0.000244556
0.000289141
0.00030036
0.000478048
0.00163614
0.00391772
0.00104371
0.000509441
0.000316269
0.000279457
0.000279343
0.00027923
0.000276858
0.00026995
0.000258925
0.000245155
0.00023098
0.000222239
0.000223995
0.000235634
0.000255757
0.000297614
0.000301411
0.000473282
0.00170027
0.0041475
0.000983759
0.000546139
0.000331362
0.0002818
0.000274361
0.000270849
0.000268018
0.00026625
0.000262236
0.000255399
0.000246622
0.000239812
0.000241173
0.0002508
0.00026625
0.000300718
0.000300553
0.00048356
0.00185324
0.00444624
0.000888959
0.000571602
0.000363719
0.000291132
0.000277375
0.000271968
0.000268014
0.000266234
0.00026521
0.000263761
0.000260571
0.000255962
0.000256229
0.000261536
0.000271269
0.000294026
0.000299653
0.000541782
0.00209145
0.00485073
0.000695565
0.000549278
0.000381911
0.000310121
0.0002895
0.000280626
0.000273595
0.000269156
0.000266606
0.000265509
0.000263563
0.000261432
0.000261936
0.000265858
0.000273084
0.000288119
0.000326137
0.000694934
0.00250464
0.00541616
0.000623273
0.000517765
0.000424251
0.000362259
0.000336351
0.000322293
0.000310932
0.000302403
0.000296666
0.000295414
0.000295954
0.00029815
0.000302333
0.000311154
0.000331633
0.000392523
0.000559642
0.00122191
0.00338758
0.00628583
0.000767858
0.000824166
0.000907863
0.000916355
0.000924666
0.000942048
0.000967302
0.00100368
0.0010433
0.00110098
0.00115447
0.00124493
0.00131809
0.00146752
0.00159071
0.00185256
0.00232658
0.0034418
0.00588971
0.00788484
0.004221
0.00673064
0.00840292
0.00908822
0.00934522
0.00944112
0.00948169
0.00951059
0.00952336
0.00954764
0.00956585
0.0096071
0.00964617
0.00972979
0.00982258
0.0099664
0.0101105
0.0102916
0.0108931
0.00982327
)
;

boundaryField
{
    movingWall
    {
        type            kqRWallFunction;
        value           nonuniform List<scalar> 
20
(
0.004221
0.00673064
0.00840292
0.00908822
0.00934522
0.00944112
0.00948169
0.00951059
0.00952336
0.00954764
0.00956585
0.0096071
0.00964617
0.00972979
0.00982258
0.0099664
0.0101105
0.0102916
0.0108931
0.00982327
)
;
    }
    fixedWalls
    {
        type            kqRWallFunction;
        value           nonuniform List<scalar> 
60
(
9.56707e-05
0.000166802
0.000302386
0.000440986
0.000534995
0.00061529
0.00069961
0.000784126
0.00086037
0.000948912
0.00100915
0.0010618
0.00106242
0.00104371
0.000983759
0.000888959
0.000695565
0.000623273
0.000767858
0.004221
0.000789726
0.00144558
0.00199827
0.00235205
0.00261677
0.00282044
0.00299365
0.00314392
0.00328598
0.0034245
0.00356996
0.00372989
0.00391772
0.0041475
0.00444624
0.00485073
0.00541616
0.00628583
0.00788484
0.00982327
9.56707e-05
0.00019414
0.000459007
0.000819552
0.00114854
0.00138174
0.00153357
0.00161442
0.0016496
0.00165852
0.00163329
0.00157794
0.00150593
0.00141756
0.00133457
0.00124698
0.0011747
0.00109666
0.000923095
0.000789726
)
;
    }
    frontAndBack
    {
        type            empty;
    }
}


// ************************************************************************* //
