/*--------------------------------*- C++ -*----------------------------------*\
| =========                 |                                                 |
| \\      /  F ield         | OpenFOAM: The Open Source CFD Toolbox           |
|  \\    /   O peration     | Version:  4.1                                   |
|   \\  /    A nd           | Web:      www.OpenFOAM.org                      |
|    \\/     M anipulation  |                                                 |
\*---------------------------------------------------------------------------*/
FoamFile
{
    version     2.0;
    format      ascii;
    class       volScalarField;
    location    "4.5";
    object      nut;
}
// * * * * * * * * * * * * * * * * * * * * * * * * * * * * * * * * * * * * * //

dimensions      [0 2 -1 0 0 0 0];

internalField   nonuniform List<scalar> 
400
(
5.50196e-06
7.83556e-06
1.20469e-05
1.60959e-05
1.90528e-05
2.08965e-05
2.20137e-05
2.25853e-05
2.28293e-05
2.28905e-05
2.27145e-05
2.23258e-05
2.18097e-05
2.116e-05
2.0531e-05
1.98469e-05
1.92642e-05
1.86147e-05
1.70793e-05
1.57948e-05
7.26215e-06
1.32482e-05
1.75318e-05
1.85442e-05
1.92425e-05
1.88373e-05
1.75964e-05
1.77893e-05
1.82391e-05
1.95018e-05
2.09541e-05
2.2007e-05
2.44425e-05
2.46735e-05
2.67022e-05
2.77884e-05
2.85643e-05
2.76899e-05
2.48901e-05
2.1368e-05
9.77496e-06
1.93796e-05
1.97164e-05
1.98903e-05
1.68122e-05
1.72212e-05
1.82395e-05
1.99009e-05
2.1207e-05
2.19216e-05
2.26615e-05
2.21066e-05
2.18753e-05
2.13241e-05
2.14834e-05
2.21164e-05
2.36589e-05
2.56297e-05
2.67315e-05
2.51201e-05
1.18037e-05
2.15406e-05
2.04986e-05
1.78189e-05
1.7722e-05
1.96669e-05
2.20863e-05
2.37608e-05
2.47207e-05
2.44646e-05
2.37808e-05
2.29088e-05
2.13339e-05
2.01246e-05
1.93971e-05
1.9485e-05
2.07632e-05
2.31858e-05
2.66419e-05
2.72509e-05
1.30008e-05
2.17512e-05
1.97634e-05
1.79887e-05
2.01097e-05
2.29164e-05
2.56812e-05
2.74017e-05
2.83273e-05
2.82844e-05
2.73632e-05
2.64753e-05
2.42887e-05
2.16444e-05
1.92458e-05
1.82161e-05
1.90375e-05
2.16176e-05
2.5947e-05
2.8741e-05
1.39406e-05
2.21244e-05
1.91651e-05
1.92703e-05
2.2479e-05
2.58094e-05
2.91557e-05
3.15924e-05
3.3421e-05
3.38063e-05
3.33129e-05
3.26079e-05
2.96029e-05
2.59466e-05
2.17077e-05
1.82596e-05
1.77718e-05
2.04611e-05
2.59194e-05
2.98362e-05
1.48637e-05
2.15252e-05
1.89962e-05
2.06661e-05
2.46149e-05
2.87108e-05
3.30562e-05
3.65719e-05
3.91111e-05
3.95608e-05
3.89999e-05
3.78733e-05
3.45866e-05
3.05385e-05
2.51828e-05
1.94321e-05
1.68784e-05
1.91274e-05
2.58988e-05
3.07361e-05
1.5735e-05
2.01033e-05
1.90144e-05
2.19342e-05
2.66563e-05
3.17246e-05
3.71169e-05
4.13559e-05
4.38058e-05
4.37052e-05
4.20467e-05
4.05362e-05
3.74282e-05
3.3828e-05
2.87369e-05
2.1392e-05
1.64822e-05
1.78985e-05
2.59743e-05
3.14951e-05
1.64823e-05
1.95815e-05
1.95113e-05
2.2991e-05
2.8435e-05
3.44991e-05
4.06135e-05
4.49648e-05
4.67039e-05
4.57578e-05
4.30992e-05
4.09132e-05
3.84868e-05
3.58911e-05
3.22295e-05
2.52328e-05
1.68143e-05
1.66597e-05
2.60364e-05
3.21958e-05
1.73082e-05
1.77014e-05
1.93289e-05
2.37486e-05
2.99682e-05
3.66756e-05
4.30037e-05
4.71213e-05
4.8205e-05
4.655e-05
4.34034e-05
4.14565e-05
3.97925e-05
3.83734e-05
3.54297e-05
2.89086e-05
1.81185e-05
1.56912e-05
2.6256e-05
3.2864e-05
1.78484e-05
1.68661e-05
1.96475e-05
2.39786e-05
3.06032e-05
3.76551e-05
4.40426e-05
4.80724e-05
4.90107e-05
4.7261e-05
4.4353e-05
4.24244e-05
4.14928e-05
4.05972e-05
3.79083e-05
3.16666e-05
1.96292e-05
1.4775e-05
2.6372e-05
3.35516e-05
1.83073e-05
1.54414e-05
1.83315e-05
2.39955e-05
3.06838e-05
3.77135e-05
4.4147e-05
4.79364e-05
4.91554e-05
4.81592e-05
4.59335e-05
4.37504e-05
4.29176e-05
4.20543e-05
3.93817e-05
3.44361e-05
2.05809e-05
1.39403e-05
2.64988e-05
3.4292e-05
1.83116e-05
1.42585e-05
1.74704e-05
2.27152e-05
2.94392e-05
3.60492e-05
4.24474e-05
4.67938e-05
4.87951e-05
4.85224e-05
4.71102e-05
4.54972e-05
4.51758e-05
4.4976e-05
4.249e-05
3.80336e-05
2.10023e-05
1.34124e-05
2.6537e-05
3.51425e-05
1.81496e-05
1.40645e-05
1.59659e-05
2.12395e-05
2.73823e-05
3.3651e-05
4.00006e-05
4.49257e-05
4.777e-05
4.87055e-05
4.85313e-05
4.69843e-05
4.6494e-05
4.57894e-05
4.2451e-05
3.67998e-05
2.0036e-05
1.26533e-05
2.66106e-05
3.61565e-05
1.76206e-05
1.41569e-05
1.44623e-05
1.94409e-05
2.50819e-05
3.03418e-05
3.56181e-05
4.0749e-05
4.45289e-05
4.64854e-05
4.75666e-05
4.65911e-05
4.59922e-05
4.46423e-05
3.99418e-05
3.25577e-05
1.73046e-05
1.14655e-05
2.70327e-05
3.74352e-05
1.67524e-05
1.50349e-05
1.37268e-05
1.65835e-05
2.24013e-05
2.75201e-05
3.2094e-05
3.63382e-05
3.99914e-05
4.24531e-05
4.42432e-05
4.29945e-05
4.17953e-05
3.87453e-05
3.24884e-05
2.39781e-05
1.31076e-05
1.10305e-05
2.81745e-05
3.90996e-05
1.48257e-05
1.52837e-05
1.40017e-05
1.55292e-05
1.93425e-05
2.33725e-05
2.6689e-05
2.93412e-05
3.12377e-05
3.22731e-05
3.1768e-05
3.03728e-05
2.83586e-05
2.463e-05
1.92616e-05
1.33807e-05
8.95279e-06
1.12426e-05
3.00245e-05
4.13151e-05
1.40338e-05
1.51795e-05
1.40188e-05
1.36628e-05
1.42735e-05
1.481e-05
1.4775e-05
1.41432e-05
1.33858e-05
1.26468e-05
1.17436e-05
1.06632e-05
9.69808e-06
8.86398e-06
8.14098e-06
7.70369e-06
8.65526e-06
1.47688e-05
3.40571e-05
4.45076e-05
1.55687e-05
1.19698e-05
1.13481e-05
1.07439e-05
1.05148e-05
1.0525e-05
1.06689e-05
1.09529e-05
1.12906e-05
1.18574e-05
1.23774e-05
1.33319e-05
1.40916e-05
1.56897e-05
1.70029e-05
1.92026e-05
2.22212e-05
2.89962e-05
4.44963e-05
4.98476e-05
3.64748e-05
4.60543e-05
5.14562e-05
5.35101e-05
5.42599e-05
5.45375e-05
5.46552e-05
5.47405e-05
5.47782e-05
5.48496e-05
5.49021e-05
5.50206e-05
5.51321e-05
5.53705e-05
5.56334e-05
5.60391e-05
5.6443e-05
5.69465e-05
5.85883e-05
5.56379e-05
)
;

boundaryField
{
    movingWall
    {
        type            nutkWallFunction;
        Cmu             0.09;
        kappa           0.41;
        E               9.8;
        value           nonuniform List<scalar> 
20
(
0
0
6.94234e-07
1.03191e-06
1.15475e-06
1.20008e-06
1.21918e-06
1.23276e-06
1.23875e-06
1.25013e-06
1.25866e-06
1.27793e-06
1.29614e-06
1.33497e-06
1.37784e-06
1.44383e-06
1.50941e-06
1.59103e-06
1.85641e-06
1.37816e-06
)
;
    }
    fixedWalls
    {
        type            nutkWallFunction;
        Cmu             0.09;
        kappa           0.41;
        E               9.8;
        value           nonuniform List<scalar> 
60
(
0
0
0
0
0
0
0
0
0
0
0
0
0
0
0
0
0
0
0
0
0
0
0
0
0
0
0
0
0
0
0
0
0
0
0
0
0
0
4.28268e-07
1.37816e-06
0
0
0
0
0
0
0
0
0
0
0
0
0
0
0
0
0
0
0
0
)
;
    }
    frontAndBack
    {
        type            empty;
    }
}


// ************************************************************************* //
