/*--------------------------------*- C++ -*----------------------------------*\
| =========                 |                                                 |
| \\      /  F ield         | OpenFOAM: The Open Source CFD Toolbox           |
|  \\    /   O peration     | Version:  4.1                                   |
|   \\  /    A nd           | Web:      www.OpenFOAM.org                      |
|    \\/     M anipulation  |                                                 |
\*---------------------------------------------------------------------------*/
FoamFile
{
    version     2.0;
    format      ascii;
    class       volScalarField;
    location    "4.5";
    object      p;
}
// * * * * * * * * * * * * * * * * * * * * * * * * * * * * * * * * * * * * * //

dimensions      [0 2 -2 0 0 0 0];

internalField   nonuniform List<scalar> 
400
(
2.82955e-08
-7.6109e-05
-0.000172086
-0.000430155
-0.00110557
-0.00222243
-0.00360731
-0.00500115
-0.00618567
-0.00704867
-0.00750492
-0.00748015
-0.00686382
-0.00553924
-0.00343211
-0.000568955
0.00278298
0.00599939
0.00813109
0.00873759
0.000105279
3.25781e-06
-0.000209268
-0.000711657
-0.00162483
-0.00289759
-0.00431613
-0.00566275
-0.00681551
-0.00765511
-0.0081052
-0.00811203
-0.00761431
-0.00651132
-0.00467574
-0.00209503
0.00109059
0.00436853
0.00680736
0.00778561
0.000137498
-0.000108013
-0.000594913
-0.00146096
-0.00271173
-0.00417127
-0.00561435
-0.00692823
-0.00803712
-0.00881017
-0.00921693
-0.00923457
-0.00884053
-0.00797202
-0.00653067
-0.00441762
-0.00163635
0.0015521
0.00429511
0.0056716
-0.000179613
-0.000587427
-0.00139442
-0.00263391
-0.00416674
-0.00573737
-0.00717669
-0.00838499
-0.00927966
-0.00987061
-0.0101792
-0.0102002
-0.00990614
-0.00926437
-0.00821192
-0.00664248
-0.00444548
-0.00164024
0.00111493
0.00263529
-0.000963161
-0.00150843
-0.00255497
-0.00403979
-0.0056775
-0.00719683
-0.00847847
-0.00948315
-0.0102055
-0.0106783
-0.0109186
-0.0109296
-0.0107007
-0.0102225
-0.00946605
-0.00835795
-0.00675765
-0.00453713
-0.00205073
-0.000586877
-0.00214667
-0.00275003
-0.00389242
-0.00542812
-0.0070002
-0.00836063
-0.00944676
-0.0102731
-0.0108739
-0.0112764
-0.0114856
-0.011501
-0.011325
-0.0109544
-0.010386
-0.00959134
-0.00848947
-0.00686094
-0.00488448
-0.00352045
-0.00346425
-0.00406761
-0.00519287
-0.00663928
-0.00805679
-0.00923368
-0.010156
-0.0108641
-0.0113952
-0.0117674
-0.011978
-0.0120195
-0.0118878
-0.011588
-0.0111334
-0.0105254
-0.00975845
-0.0085929
-0.00715664
-0.00595899
-0.00467374
-0.00523121
-0.00628011
-0.00759319
-0.00884481
-0.00986822
-0.0106782
-0.0113184
-0.0118185
-0.0121875
-0.0124167
-0.0124909
-0.0124012
-0.0121521
-0.0117677
-0.0112643
-0.0107014
-0.0098469
-0.00886444
-0.00783111
-0.00560538
-0.00611434
-0.00707036
-0.00826656
-0.00938414
-0.0103018
-0.011047
-0.0116568
-0.0121524
-0.0125365
-0.0127949
-0.012905
-0.0128518
-0.0126372
-0.0122923
-0.011827
-0.011387
-0.0107082
-0.0100235
-0.0091512
-0.00620628
-0.0066547
-0.00753489
-0.00865249
-0.00968413
-0.010546
-0.0112661
-0.0118729
-0.0123814
-0.0127902
-0.0130808
-0.0132248
-0.0131988
-0.0130004
-0.0126698
-0.0121787
-0.011826
-0.0111689
-0.0107325
-0.00992585
-0.00644986
-0.00686352
-0.00768479
-0.00875414
-0.00974632
-0.0105983
-0.0113239
-0.0119463
-0.0124776
-0.0129122
-0.0132284
-0.0133976
-0.0133813
-0.0131742
-0.0128416
-0.0122678
-0.0119928
-0.0112073
-0.0110402
-0.0101476
-0.00634396
-0.00674612
-0.00753313
-0.00857156
-0.00956934
-0.0104443
-0.0111992
-0.011852
-0.0124117
-0.0128693
-0.0131998
-0.0133689
-0.0133439
-0.0131159
-0.0127278
-0.0121183
-0.0117788
-0.0108803
-0.0109559
-0.00979863
-0.00597234
-0.00636301
-0.00711997
-0.00812262
-0.00915379
-0.0100739
-0.0108766
-0.0115728
-0.012166
-0.0126433
-0.0129774
-0.0131327
-0.0130804
-0.0128061
-0.0123502
-0.0116814
-0.0112049
-0.0102508
-0.010438
-0.00893525
-0.00542681
-0.00576887
-0.00647289
-0.00742517
-0.00848754
-0.00947062
-0.0103427
-0.0111007
-0.0117387
-0.0122387
-0.0125726
-0.0127041
-0.0126099
-0.0122687
-0.0117267
-0.0109611
-0.01032
-0.00934145
-0.0095441
-0.00774303
-0.00483731
-0.0050713
-0.00565994
-0.0065317
-0.00758746
-0.00863602
-0.00959846
-0.0104415
-0.0111428
-0.0116774
-0.0120166
-0.0121237
-0.0119787
-0.0115555
-0.010906
-0.0100114
-0.00920248
-0.00817768
-0.00836423
-0.00635056
-0.00429799
-0.00432509
-0.00472689
-0.00546422
-0.00647102
-0.00757876
-0.00865296
-0.00960954
-0.0104006
-0.0109905
-0.011351
-0.0114437
-0.0112536
-0.0107487
-0.00997925
-0.00894077
-0.00794314
-0.00677187
-0.0068908
-0.00445628
-0.00392177
-0.00369263
-0.00380241
-0.00431435
-0.00521525
-0.00635983
-0.00755414
-0.00864955
-0.00956278
-0.0102412
-0.0106558
-0.0107656
-0.0105547
-0.009981
-0.00909035
-0.0078858
-0.00660811
-0.00507848
-0.00469155
-0.000445606
-0.00355426
-0.00306286
-0.00290525
-0.00314578
-0.00392222
-0.00509338
-0.00639381
-0.00761373
-0.00865175
-0.00943463
-0.00992611
-0.0100766
-0.00986783
-0.00926706
-0.00828557
-0.00688435
-0.00515007
-0.00278006
-0.000447589
0.00888714
-0.0049671
-0.0034016
-0.00254214
-0.00235196
-0.00299019
-0.004179
-0.00556745
-0.00689858
-0.00804045
-0.00891498
-0.00947825
-0.00969665
-0.00952954
-0.00893957
-0.0078028
-0.00599578
-0.00339188
0.000787209
0.00700712
0.0242415
-0.000386169
0.00109464
0.000257776
-0.000754735
-0.00195733
-0.00338659
-0.00491958
-0.00637348
-0.00760358
-0.00853532
-0.00911751
-0.0093182
-0.00907471
-0.00832109
-0.00693885
-0.00474202
-0.000902416
0.0057864
0.0166782
0.0356308
)
;

boundaryField
{
    movingWall
    {
        type            zeroGradient;
    }
    fixedWalls
    {
        type            zeroGradient;
    }
    frontAndBack
    {
        type            empty;
    }
}


// ************************************************************************* //
