/*--------------------------------*- C++ -*----------------------------------*\
| =========                 |                                                 |
| \\      /  F ield         | OpenFOAM: The Open Source CFD Toolbox           |
|  \\    /   O peration     | Version:  4.1                                   |
|   \\  /    A nd           | Web:      www.OpenFOAM.org                      |
|    \\/     M anipulation  |                                                 |
\*---------------------------------------------------------------------------*/
FoamFile
{
    version     2.0;
    format      ascii;
    class       surfaceScalarField;
    location    "4.5";
    object      phi;
}
// * * * * * * * * * * * * * * * * * * * * * * * * * * * * * * * * * * * * * //

dimensions      [0 3 -1 0 0 0 0];

internalField   nonuniform List<scalar> 
760
(
1.12213e-08
-1.1224e-08
-2.90676e-07
3.01897e-07
-9.90833e-07
7.00157e-07
-2.04139e-06
1.05056e-06
-3.22447e-06
1.18308e-06
-4.38737e-06
1.1629e-06
-5.42268e-06
1.03531e-06
-6.2891e-06
8.66421e-07
-6.95023e-06
6.6113e-07
-7.44346e-06
4.93227e-07
-7.75467e-06
3.11207e-07
-7.89562e-06
1.40952e-07
-7.8466e-06
-4.90156e-08
-7.57149e-06
-2.75112e-07
-7.03569e-06
-5.358e-07
-6.13792e-06
-8.97766e-07
-4.83346e-06
-1.30447e-06
-3.13497e-06
-1.69849e-06
-1.33688e-06
-1.79809e-06
-1.33688e-06
-4.4342e-07
4.32196e-07
-1.25916e-06
1.11764e-06
-2.3574e-06
1.79839e-06
-3.5234e-06
2.21656e-06
-4.63559e-06
2.29527e-06
-5.60562e-06
2.13294e-06
-6.4044e-06
1.83408e-06
-7.02507e-06
1.48709e-06
-7.51477e-06
1.15083e-06
-7.84996e-06
8.28423e-07
-8.0359e-06
4.97139e-07
-8.05802e-06
1.6308e-07
-7.92642e-06
-1.80623e-07
-7.64643e-06
-5.55099e-07
-7.14099e-06
-1.04124e-06
-6.36326e-06
-1.6755e-06
-5.21217e-06
-2.45556e-06
-3.64048e-06
-3.27017e-06
-1.76378e-06
-3.67479e-06
-3.10066e-06
-8.44032e-07
1.27623e-06
-1.92234e-06
2.19595e-06
-3.03858e-06
2.91463e-06
-4.06828e-06
3.24626e-06
-4.94295e-06
3.16994e-06
-5.62733e-06
2.81732e-06
-6.14325e-06
2.35e-06
-6.48984e-06
1.83368e-06
-6.70455e-06
1.36554e-06
-6.78201e-06
9.05887e-07
-6.7861e-06
5.01228e-07
-6.72536e-06
1.02344e-07
-6.60256e-06
-3.03432e-07
-6.38236e-06
-7.75292e-07
-6.04678e-06
-1.37682e-06
-5.53372e-06
-2.18855e-06
-4.72725e-06
-3.26204e-06
-3.49509e-06
-4.50233e-06
-1.8588e-06
-5.31108e-06
-4.95946e-06
-1.02623e-06
2.30246e-06
-2.11227e-06
3.28199e-06
-3.09895e-06
3.90131e-06
-3.91645e-06
4.06377e-06
-4.50218e-06
3.75566e-06
-4.86728e-06
3.18242e-06
-5.04602e-06
2.52874e-06
-5.1055e-06
1.89316e-06
-5.09924e-06
1.35927e-06
-5.07609e-06
8.82745e-07
-5.02997e-06
4.55105e-07
-4.96787e-06
4.02459e-08
-4.86463e-06
-4.06677e-07
-4.71994e-06
-9.19975e-07
-4.52721e-06
-1.56956e-06
-4.25822e-06
-2.45754e-06
-3.81975e-06
-3.70051e-06
-2.98502e-06
-5.33706e-06
-1.67717e-06
-6.61893e-06
-6.63663e-06
-9.71242e-07
3.2737e-06
-1.92835e-06
4.23909e-06
-2.72708e-06
4.70004e-06
-3.29381e-06
4.6305e-06
-3.60977e-06
4.07162e-06
-3.7384e-06
3.31105e-06
-3.76586e-06
2.5562e-06
-3.76391e-06
1.89121e-06
-3.74105e-06
1.33641e-06
-3.70531e-06
8.47008e-07
-3.64878e-06
3.98569e-07
-3.56694e-06
-4.15881e-08
-3.4519e-06
-5.21716e-07
-3.31403e-06
-1.05784e-06
-3.16758e-06
-1.71601e-06
-3.01738e-06
-2.60775e-06
-2.81534e-06
-3.90255e-06
-2.33521e-06
-5.81718e-06
-1.38699e-06
-7.56715e-06
-8.02362e-06
-8.02702e-07
4.0764e-06
-1.57294e-06
5.00934e-06
-2.16301e-06
5.2901e-06
-2.53171e-06
4.99921e-06
-2.69634e-06
4.23625e-06
-2.74934e-06
3.36405e-06
-2.76304e-06
2.5699e-06
-2.77788e-06
1.90605e-06
-2.79304e-06
1.35157e-06
-2.79884e-06
8.52812e-07
-2.77842e-06
3.7815e-07
-2.71184e-06
-1.08172e-07
-2.60049e-06
-6.33066e-07
-2.44215e-06
-1.21618e-06
-2.26279e-06
-1.89537e-06
-2.1069e-06
-2.76363e-06
-2.00433e-06
-4.00513e-06
-1.79784e-06
-6.02367e-06
-1.09418e-06
-8.27081e-06
-9.1178e-06
-6.02897e-07
4.6793e-06
-1.15967e-06
5.56611e-06
-1.57019e-06
5.70062e-06
-1.80619e-06
5.2352e-06
-1.90802e-06
4.33809e-06
-1.95433e-06
3.41036e-06
-1.99766e-06
2.61324e-06
-2.05521e-06
1.9636e-06
-2.11572e-06
1.41208e-06
-2.16452e-06
9.0161e-07
-2.18071e-06
3.94333e-07
-2.1458e-06
-1.43073e-07
-2.05039e-06
-7.28478e-07
-1.89274e-06
-1.37383e-06
-1.69311e-06
-2.095e-06
-1.49857e-06
-2.95818e-06
-1.38218e-06
-4.12151e-06
-1.2925e-06
-6.11335e-06
-8.77983e-07
-8.68532e-06
-9.99578e-06
-3.83383e-07
5.06268e-06
-7.51943e-07
5.93467e-06
-1.02143e-06
5.97011e-06
-1.17331e-06
5.38708e-06
-1.25018e-06
4.41496e-06
-1.30928e-06
3.46946e-06
-1.38326e-06
2.68722e-06
-1.47234e-06
2.05268e-06
-1.56259e-06
1.50232e-06
-1.63908e-06
9.78104e-07
-1.68209e-06
4.37338e-07
-1.6731e-06
-1.52057e-07
-1.60207e-06
-7.99508e-07
-1.46541e-06
-1.5105e-06
-1.28086e-06
-2.27954e-06
-1.08481e-06
-3.15423e-06
-9.66531e-07
-4.23979e-06
-9.1823e-07
-6.16165e-06
-6.77616e-07
-8.92594e-06
-1.06734e-05
-1.86267e-07
5.24895e-06
-3.81904e-07
6.13031e-06
-5.32685e-07
6.12089e-06
-6.21442e-07
5.47584e-06
-6.83891e-07
4.47741e-06
-7.52966e-07
3.53854e-06
-8.40825e-07
2.77508e-06
-9.40509e-07
2.15236e-06
-1.04034e-06
1.60216e-06
-1.12784e-06
1.0656e-06
-1.18684e-06
4.96343e-07
-1.19978e-06
-1.39122e-07
-1.15851e-06
-8.40776e-07
-1.05799e-06
-1.61102e-06
-9.09513e-07
-2.42801e-06
-7.40978e-07
-3.32277e-06
-6.33549e-07
-4.34722e-06
-6.15636e-07
-6.17957e-06
-5.37818e-07
-9.00376e-06
-1.12112e-05
1.76443e-08
5.23131e-06
-5.34729e-08
6.20142e-06
-1.00489e-07
6.1679e-06
-1.32831e-07
5.50818e-06
-1.71615e-07
4.51619e-06
-2.34884e-07
3.60181e-06
-3.16286e-07
2.85648e-06
-4.0608e-07
2.24215e-06
-4.9569e-07
1.69177e-06
-5.76158e-07
1.14607e-06
-6.37584e-07
5.57769e-07
-6.67033e-07
-1.09673e-07
-6.5895e-07
-8.48859e-07
-6.08173e-07
-1.6618e-06
-5.24357e-07
-2.51183e-06
-4.20378e-07
-3.42675e-06
-3.67572e-07
-4.40002e-06
-3.98318e-07
-6.14882e-06
-4.16947e-07
-8.98513e-06
-1.16282e-05
1.83765e-07
5.04754e-06
2.7513e-07
6.11006e-06
3.3885e-07
6.10419e-06
3.46667e-07
5.50037e-06
3.27503e-07
4.53535e-06
2.81723e-07
3.64759e-06
2.22381e-07
2.91582e-06
1.58426e-07
2.30611e-06
9.42256e-08
1.75597e-06
3.42835e-08
1.20601e-06
-1.43948e-08
6.06447e-07
-5.30523e-08
-7.10151e-08
-7.64734e-08
-8.25438e-07
-8.93727e-08
-1.6489e-06
-6.98089e-08
-2.53139e-06
-9.26878e-08
-3.40387e-06
-7.84951e-08
-4.41421e-06
-2.05587e-07
-6.02173e-06
-3.32389e-07
-8.85833e-06
-1.19606e-05
3.51468e-07
4.69607e-06
5.75236e-07
5.88629e-06
7.45375e-07
5.93405e-06
8.07543e-07
5.4382e-06
8.22905e-07
4.51999e-06
8.10892e-07
3.6596e-06
7.8867e-07
2.93804e-06
7.64017e-07
2.33076e-06
7.38372e-07
1.78161e-06
7.10065e-07
1.23432e-06
6.73734e-07
6.42779e-07
6.23589e-07
-2.08701e-08
5.61274e-07
-7.63124e-07
4.85248e-07
-1.57288e-06
3.97109e-07
-2.44325e-06
2.93365e-07
-3.30013e-06
1.84547e-07
-4.3054e-06
-6.07922e-08
-5.77639e-06
-2.45598e-07
-8.67352e-06
-1.22062e-05
5.02514e-07
4.19356e-06
8.66174e-07
5.52263e-06
1.13957e-06
5.66065e-06
1.28755e-06
5.29021e-06
1.3509e-06
4.45665e-06
1.37963e-06
3.63088e-06
1.39716e-06
2.92051e-06
1.41161e-06
2.31631e-06
1.42153e-06
1.77169e-06
1.42012e-06
1.23574e-06
1.39595e-06
6.66944e-07
1.33451e-06
4.0567e-08
1.23492e-06
-6.63531e-07
1.09247e-06
-1.43043e-06
9.10111e-07
-2.26089e-06
7.17608e-07
-3.10762e-06
4.62051e-07
-4.04984e-06
1.38583e-07
-5.45292e-06
-1.17988e-07
-8.41695e-06
-1.23241e-05
6.20627e-07
3.57293e-06
1.11413e-06
5.02913e-06
1.48381e-06
5.29097e-06
1.73619e-06
5.03783e-06
1.87395e-06
4.31888e-06
1.96362e-06
3.54121e-06
2.03327e-06
2.85086e-06
2.09189e-06
2.25769e-06
2.13672e-06
1.72686e-06
2.15808e-06
1.21438e-06
2.14073e-06
6.84289e-07
2.06988e-06
1.11425e-07
1.93338e-06
-5.2704e-07
1.7284e-06
-1.22545e-06
1.45978e-06
-1.99227e-06
1.15154e-06
-2.79939e-06
7.6277e-07
-3.66107e-06
3.67369e-07
-5.05752e-06
5.04702e-08
-8.10005e-06
-1.22737e-05
6.82795e-07
2.89014e-06
1.31782e-06
4.3941e-06
1.81869e-06
4.7901e-06
2.20073e-06
4.6558e-06
2.4465e-06
4.07311e-06
2.61358e-06
3.37413e-06
2.73871e-06
2.72573e-06
2.83653e-06
2.15987e-06
2.90693e-06
1.65646e-06
2.94069e-06
1.18062e-06
2.92256e-06
7.02414e-07
2.83418e-06
1.99808e-07
2.66068e-06
-3.5354e-07
2.39763e-06
-9.62394e-07
2.04239e-06
-1.63703e-06
1.60876e-06
-2.36575e-06
1.08757e-06
-3.13988e-06
6.03194e-07
-4.57315e-06
1.78147e-07
-7.675e-06
-1.20955e-05
6.75123e-07
2.21502e-06
1.36786e-06
3.70137e-06
1.99571e-06
4.16224e-06
2.52557e-06
4.12594e-06
2.92392e-06
3.67476e-06
3.2162e-06
3.08185e-06
3.43305e-06
2.50888e-06
3.59447e-06
1.99845e-06
3.7045e-06
1.54643e-06
3.75694e-06
1.12818e-06
3.74014e-06
7.19213e-07
3.63848e-06
3.01466e-07
3.43257e-06
-1.47627e-07
3.11302e-06
-6.42846e-07
2.66468e-06
-1.18869e-06
2.0935e-06
-1.79457e-06
1.43412e-06
-2.4805e-06
8.38607e-07
-3.97763e-06
3.21494e-07
-7.15789e-06
-1.1774e-05
4.68209e-07
1.74681e-06
1.30811e-06
2.86146e-06
2.10207e-06
3.36829e-06
2.82721e-06
3.4008e-06
3.42107e-06
3.0809e-06
3.87203e-06
2.63089e-06
4.20436e-06
2.17655e-06
4.44078e-06
1.76203e-06
4.59539e-06
1.39181e-06
4.6662e-06
1.05737e-06
4.64921e-06
7.36207e-07
4.53002e-06
4.20652e-07
4.27747e-06
1.04924e-07
3.90103e-06
-2.66401e-07
3.3541e-06
-6.41763e-07
2.66002e-06
-1.10049e-06
1.89595e-06
-1.71643e-06
1.19606e-06
-3.27775e-06
5.08794e-07
-6.47062e-06
-1.12652e-05
4.83716e-08
1.69843e-06
7.86134e-07
2.1237e-06
1.69175e-06
2.46267e-06
2.64331e-06
2.44924e-06
3.48812e-06
2.23609e-06
4.16951e-06
1.9495e-06
4.68737e-06
1.6587e-06
5.06056e-06
1.38884e-06
5.30356e-06
1.1488e-06
5.43674e-06
9.24196e-07
5.44572e-06
7.27228e-07
5.34861e-06
5.17757e-07
5.11695e-06
3.36584e-07
4.77917e-06
7.13815e-08
4.25029e-06
-1.12887e-07
3.62569e-06
-4.75889e-07
2.91538e-06
-1.00611e-06
2.1446e-06
-2.50697e-06
1.0263e-06
-5.35233e-06
-1.02389e-05
-5.89383e-07
2.28782e-06
1.05093e-07
1.42923e-06
1.33888e-06
1.22889e-06
2.59425e-06
1.19386e-06
3.68599e-06
1.14435e-06
4.58986e-06
1.04563e-06
5.32315e-06
9.25404e-07
5.90877e-06
8.03217e-07
6.36155e-06
6.96029e-07
6.69641e-06
5.89339e-07
6.92476e-06
4.98873e-07
7.0466e-06
3.95922e-07
7.07505e-06
3.08129e-07
6.9601e-06
1.8633e-07
6.76101e-06
8.62062e-08
6.44272e-06
-1.57599e-07
5.92885e-06
-4.92245e-07
4.93242e-06
-1.51054e-06
2.75431e-06
-3.17422e-06
-7.48462e-06
2.28782e-06
3.71704e-06
4.94593e-06
6.13979e-06
7.28414e-06
8.32978e-06
9.25518e-06
1.00584e-05
1.07544e-05
1.13438e-05
1.18426e-05
1.22386e-05
1.25467e-05
1.2733e-05
1.28192e-05
1.26616e-05
1.21694e-05
1.06588e-05
7.48462e-06
)
;

boundaryField
{
    movingWall
    {
        type            calculated;
        value           uniform 0;
    }
    fixedWalls
    {
        type            calculated;
        value           uniform 0;
    }
    frontAndBack
    {
        type            empty;
        value           nonuniform 0();
    }
}


// ************************************************************************* //
