/*--------------------------------*- C++ -*----------------------------------*\
| =========                 |                                                 |
| \\      /  F ield         | OpenFOAM: The Open Source CFD Toolbox           |
|  \\    /   O peration     | Version:  4.1                                   |
|   \\  /    A nd           | Web:      www.OpenFOAM.org                      |
|    \\/     M anipulation  |                                                 |
\*---------------------------------------------------------------------------*/
FoamFile
{
    version     2.0;
    format      ascii;
    class       volVectorField;
    location    "4.5";
    object      U;
}
// * * * * * * * * * * * * * * * * * * * * * * * * * * * * * * * * * * * * * //

dimensions      [0 1 -1 0 0 0 0];

internalField   nonuniform List<vector> 
400
(
(0.00156093 -0.00245766 0)
(-0.00122223 0.000702878 0)
(-0.0096025 0.00462191 0)
(-0.0281453 0.0103913 0)
(-0.0530784 0.0128418 0)
(-0.0780884 0.0123391 0)
(-0.100537 0.0109672 0)
(-0.119279 0.00925975 0)
(-0.134052 0.00761875 0)
(-0.145347 0.00572442 0)
(-0.153407 0.00392596 0)
(-0.157676 0.00214186 0)
(-0.15911 0.000329101 0)
(-0.155862 -0.00315006 0)
(-0.146712 -0.00571739 0)
(-0.131217 -0.0102799 0)
(-0.108006 -0.0143762 0)
(-0.077717 -0.0180746 0)
(-0.043571 -0.0171663 0)
(-0.0143374 -0.00945626 0)
(-0.00318335 0.00220658 0)
(-0.0144074 0.0125331 0)
(-0.0343219 0.0252048 0)
(-0.0584496 0.0331992 0)
(-0.0833692 0.0351357 0)
(-0.104812 0.0332666 0)
(-0.122344 0.02928 0)
(-0.135434 0.0247244 0)
(-0.146969 0.0183484 0)
(-0.1546 0.0134498 0)
(-0.160119 0.00796153 0)
(-0.162202 0.0030254 0)
(-0.161585 -0.00275298 0)
(-0.157278 -0.00933755 0)
(-0.14891 -0.0180453 0)
(-0.13494 -0.0288186 0)
(-0.114524 -0.0413365 0)
(-0.0867515 -0.0530151 0)
(-0.0538588 -0.0563324 0)
(-0.0199907 -0.0421912 0)
(-0.00771604 0.0164814 0)
(-0.0261613 0.03373 0)
(-0.0491869 0.0476231 0)
(-0.0723109 0.0547285 0)
(-0.0927536 0.0545288 0)
(-0.107875 0.049315 0)
(-0.118856 0.0414512 0)
(-0.127782 0.0322793 0)
(-0.133202 0.0248163 0)
(-0.135344 0.0169416 0)
(-0.136199 0.00965581 0)
(-0.135544 0.00213271 0)
(-0.134381 -0.00588892 0)
(-0.1312 -0.0152597 0)
(-0.125672 -0.0270874 0)
(-0.116352 -0.0427939 0)
(-0.101958 -0.0624338 0)
(-0.0805005 -0.0833968 0)
(-0.0530471 -0.0950969 0)
(-0.0210114 -0.0844764 0)
(-0.0102806 0.0358811 0)
(-0.0309733 0.0551344 0)
(-0.0530314 0.0681379 0)
(-0.0727479 0.0728337 0)
(-0.0868862 0.0690734 0)
(-0.0954296 0.0598461 0)
(-0.100617 0.0488274 0)
(-0.10228 0.0378185 0)
(-0.101808 0.027593 0)
(-0.101844 0.0181132 0)
(-0.101236 0.00981159 0)
(-0.100292 0.00161542 0)
(-0.0988274 -0.00690684 0)
(-0.0966779 -0.0169765 0)
(-0.0936986 -0.0299785 0)
(-0.0890881 -0.0479726 0)
(-0.0810739 -0.0726448 0)
(-0.0664384 -0.102294 0)
(-0.0460839 -0.123272 0)
(-0.0186812 -0.120231 0)
(-0.0100904 0.0551327 0)
(-0.0293815 0.0745252 0)
(-0.0486634 0.0856038 0)
(-0.0632645 0.0867618 0)
(-0.0713589 0.078381 0)
(-0.0745682 0.0653573 0)
(-0.0755445 0.051508 0)
(-0.0752001 0.0385636 0)
(-0.0749256 0.0274759 0)
(-0.074501 0.0176964 0)
(-0.073634 0.00885767 0)
(-0.0723457 0.00022297 0)
(-0.0703796 -0.00865122 0)
(-0.0680622 -0.0188228 0)
(-0.0655397 -0.0317178 0)
(-0.0629978 -0.0498283 0)
(-0.0593962 -0.0765743 0)
(-0.0501205 -0.11427 0)
(-0.037168 -0.144549 0)
(-0.015806 -0.149816 0)
(-0.00811437 0.0727521 0)
(-0.0247388 0.0921917 0)
(-0.0396641 0.0997246 0)
(-0.0498273 0.0963189 0)
(-0.0538663 0.083412 0)
(-0.0547869 0.0672613 0)
(-0.0549962 0.0516776 0)
(-0.0551402 0.0382107 0)
(-0.0556723 0.0269962 0)
(-0.0559934 0.0170317 0)
(-0.0559354 0.00773047 0)
(-0.0551046 -0.00161076 0)
(-0.0533054 -0.0114372 0)
(-0.050666 -0.0223634 0)
(-0.0474163 -0.0353296 0)
(-0.0442162 -0.0524559 0)
(-0.0422509 -0.0778818 0)
(-0.0362084 -0.118667 0)
(-0.0310281 -0.160259 0)
(-0.00948304 -0.173275 0)
(-0.00607729 0.0872513 0)
(-0.0187987 0.105459 0)
(-0.0291905 0.109596 0)
(-0.0361819 0.102441 0)
(-0.0379785 0.086033 0)
(-0.0385099 0.0680005 0)
(-0.0392177 0.0519316 0)
(-0.040315 0.0386843 0)
(-0.0417263 0.0275602 0)
(-0.0429418 0.0174373 0)
(-0.0436957 0.00759998 0)
(-0.043516 -0.00263927 0)
(-0.0421647 -0.0137097 0)
(-0.0396028 -0.0259053 0)
(-0.03606 -0.0397233 0)
(-0.0318981 -0.0567237 0)
(-0.0300978 -0.0804242 0)
(-0.0239354 -0.120633 0)
(-0.0249039 -0.170582 0)
(-0.00672827 -0.192252 0)
(-0.00345742 0.0975057 0)
(-0.0124347 0.115496 0)
(-0.0191156 0.117194 0)
(-0.0238195 0.106552 0)
(-0.0245011 0.0877559 0)
(-0.0253089 0.0688623 0)
(-0.0266392 0.0529577 0)
(-0.0284275 0.0400626 0)
(-0.030409 0.0290032 0)
(-0.0322037 0.0186231 0)
(-0.0334931 0.00811721 0)
(-0.0338275 -0.00315881 0)
(-0.0329501 -0.0155306 0)
(-0.0307833 -0.0290913 0)
(-0.0275794 -0.0439215 0)
(-0.0230506 -0.0611608 0)
(-0.0221194 -0.0832567 0)
(-0.0151788 -0.122472 0)
(-0.0208901 -0.17654 0)
(-0.00284184 -0.207287 0)
(-0.00162494 0.104019 0)
(-0.00623174 0.120863 0)
(-0.0101289 0.121042 0)
(-0.0127665 0.108742 0)
(-0.0129876 0.0889076 0)
(-0.0140784 0.070004 0)
(-0.0157197 0.0545275 0)
(-0.0177463 0.0419435 0)
(-0.0198918 0.0309093 0)
(-0.0218877 0.0202584 0)
(-0.023436 0.00911667 0)
(-0.0241299 -0.00315954 0)
(-0.0237426 -0.0168135 0)
(-0.0221918 -0.0317378 0)
(-0.0199116 -0.0476435 0)
(-0.0153483 -0.0653664 0)
(-0.015926 -0.0860131 0)
(-0.0079788 -0.123795 0)
(-0.0177996 -0.179363 0)
(-0.00071793 -0.219467 0)
(0.0013477 0.105591 0)
(-0.000689425 0.124471 0)
(-0.00188646 0.123891 0)
(-0.00289632 0.110248 0)
(-0.0028172 0.0901335 0)
(-0.00383468 0.0714362 0)
(-0.00535568 0.0562947 0)
(-0.00719284 0.043905 0)
(-0.00910619 0.0328708 0)
(-0.0109138 0.0219978 0)
(-0.0124035 0.0103626 0)
(-0.0132582 -0.00271229 0)
(-0.0133532 -0.0173814 0)
(-0.0125831 -0.0333911 0)
(-0.0118408 -0.0501836 0)
(-0.00768761 -0.0682517 0)
(-0.0108417 -0.0882649 0)
(-0.00206829 -0.123794 0)
(-0.0157967 -0.180222 0)
(0.00196543 -0.229065 0)
(0.0029823 0.103749 0)
(0.00439691 0.123665 0)
(0.00580865 0.123 0)
(0.00646371 0.109988 0)
(0.00695062 0.0903854 0)
(0.00628556 0.0724006 0)
(0.00515082 0.0576929 0)
(0.00381503 0.0454891 0)
(0.00246703 0.0344809 0)
(0.00120709 0.0234866 0)
(8.24353e-05 0.0115486 0)
(-0.000774201 -0.00196263 0)
(-0.00135292 -0.017136 0)
(-0.00141811 -0.0336853 0)
(-0.00255395 -0.0511383 0)
(0.000624798 -0.0689405 0)
(-0.00553218 -0.0891333 0)
(0.00371227 -0.121758 0)
(-0.0141853 -0.179057 0)
(0.0039631 -0.236385 0)
(0.00482488 0.0991234 0)
(0.00904049 0.121738 0)
(0.0129821 0.121732 0)
(0.0151781 0.110223 0)
(0.0164322 0.0909833 0)
(0.0164989 0.0733318 0)
(0.016077 0.0587257 0)
(0.0155045 0.0465264 0)
(0.0149299 0.035514 0)
(0.0143552 0.0245084 0)
(0.0137196 0.0125332 0)
(0.0129767 -0.000973381 0)
(0.0119387 -0.016085 0)
(0.0109017 -0.0325764 0)
(0.00808832 -0.0502418 0)
(0.00946463 -0.0676467 0)
(0.000270575 -0.0878584 0)
(0.00938263 -0.118031 0)
(-0.0134323 -0.175954 0)
(0.00688921 -0.241424 0)
(0.00637933 0.0901972 0)
(0.0134134 0.114744 0)
(0.020152 0.116033 0)
(0.0238286 0.107529 0)
(0.0264949 0.0896053 0)
(0.0274402 0.0728101 0)
(0.0278156 0.0586132 0)
(0.0280449 0.0465887 0)
(0.028241 0.0356993 0)
(0.0283244 0.0248743 0)
(0.0281206 0.0132374 0)
(0.0274424 0.000203129 0)
(0.0258807 -0.0142977 0)
(0.0239677 -0.0301767 0)
(0.0195009 -0.0473113 0)
(0.0190053 -0.0645026 0)
(0.00702146 -0.0836824 0)
(0.0150965 -0.112348 0)
(-0.012264 -0.170678 0)
(0.0102278 -0.24453 0)
(0.00808922 0.0795502 0)
(0.017066 0.108031 0)
(0.0263234 0.111435 0)
(0.0316714 0.104807 0)
(0.0361002 0.088917 0)
(0.0384609 0.0724457 0)
(0.0399877 0.0582121 0)
(0.0412107 0.0461201 0)
(0.0422246 0.035298 0)
(0.0429211 0.0247645 0)
(0.0430265 0.013716 0)
(0.0423816 0.00155914 0)
(0.0402619 -0.0118467 0)
(0.0376046 -0.0265501 0)
(0.0314371 -0.0426107 0)
(0.0292446 -0.0592254 0)
(0.0141512 -0.0771297 0)
(0.0208149 -0.10539 0)
(-0.0107547 -0.164783 0)
(0.0146954 -0.246497 0)
(0.00835067 0.0648922 0)
(0.0200062 0.09429 0)
(0.0317464 0.101098 0)
(0.0397615 0.0970947 0)
(0.0463365 0.0841178 0)
(0.0505799 0.0693333 0)
(0.0534994 0.0559465 0)
(0.0557195 0.0443631 0)
(0.0574037 0.0340217 0)
(0.058524 0.0241285 0)
(0.0587115 0.0140213 0)
(0.0579907 0.00314862 0)
(0.055172 -0.00872628 0)
(0.0518672 -0.0217354 0)
(0.0440331 -0.036166 0)
(0.0402063 -0.0515265 0)
(0.0217356 -0.0679486 0)
(0.0268433 -0.0967217 0)
(-0.00880059 -0.159122 0)
(0.0196864 -0.24824 0)
(0.00878369 0.0523406 0)
(0.020127 0.0838552 0)
(0.0339679 0.0925434 0)
(0.0449569 0.0906251 0)
(0.0541886 0.0799718 0)
(0.0611926 0.0664794 0)
(0.0663865 0.0536967 0)
(0.070278 0.0425518 0)
(0.0730071 0.0327675 0)
(0.0747844 0.0236797 0)
(0.0750545 0.0146941 0)
(0.0743811 0.0053297 0)
(0.0708894 -0.00472988 0)
(0.0670874 -0.0157339 0)
(0.0576688 -0.0279838 0)
(0.0517255 -0.0415837 0)
(0.0297984 -0.0565723 0)
(0.03338 -0.0869199 0)
(-0.00738236 -0.152392 0)
(0.025694 -0.249039 0)
(0.00239208 0.0345358 0)
(0.0183856 0.0623886 0)
(0.0347937 0.0741733 0)
(0.0492248 0.0754532 0)
(0.0620834 0.068501 0)
(0.0724747 0.0582583 0)
(0.0805255 0.0477916 0)
(0.0864543 0.038072 0)
(0.090364 0.0294444 0)
(0.0929453 0.0215976 0)
(0.0931201 0.0140991 0)
(0.0926167 0.00664707 0)
(0.0881506 -0.00123839 0)
(0.0838197 -0.00970667 0)
(0.0726979 -0.0188966 0)
(0.0643158 -0.0295279 0)
(0.0398624 -0.0433176 0)
(0.0422953 -0.0754632 0)
(-0.00462098 -0.143496 0)
(0.0336966 -0.242611 0)
(-0.00364992 0.041762 0)
(0.00643281 0.0580908 0)
(0.02563 0.0648669 0)
(0.0434907 0.0643176 0)
(0.0606612 0.0583701 0)
(0.0760852 0.0503816 0)
(0.0881561 0.0424251 0)
(0.0977012 0.0353448 0)
(0.103332 0.0288197 0)
(0.10795 0.0229187 0)
(0.108494 0.0171788 0)
(0.10909 0.0116338 0)
(0.104521 0.00622387 0)
(0.100893 0.000275935 0)
(0.0899443 -0.00525941 0)
(0.0819015 -0.0137207 0)
(0.0598195 -0.0270773 0)
(0.0613712 -0.0603754 0)
(0.00879718 -0.123275 0)
(0.0497152 -0.214644 0)
(-0.00783932 0.0118656 0)
(-0.0112412 0.0130131 0)
(0.015341 0.0233171 0)
(0.0394607 0.027583 0)
(0.0620884 0.0277546 0)
(0.0823689 0.0255597 0)
(0.0985951 0.0223946 0)
(0.112576 0.0188727 0)
(0.122482 0.0158779 0)
(0.13114 0.0127505 0)
(0.136034 0.0105003 0)
(0.140282 0.00749061 0)
(0.141003 0.00562183 0)
(0.140834 0.00164187 0)
(0.136346 -0.000453236 0)
(0.132793 -0.00718755 0)
(0.119159 -0.0153807 0)
(0.114927 -0.0408847 0)
(0.0590837 -0.0848343 0)
(0.0871565 -0.15803 0)
(0.0482167 0.0987156 0)
(0.0536165 0.0587651 0)
(0.0862296 0.0360704 0)
(0.111721 0.0267164 0)
(0.134253 0.022195 0)
(0.155971 0.0192267 0)
(0.175473 0.0169154 0)
(0.193238 0.0150421 0)
(0.208217 0.013429 0)
(0.221319 0.0121334 0)
(0.232014 0.0107977 0)
(0.240973 0.00982859 0)
(0.24786 0.00837344 0)
(0.252748 0.00749692 0)
(0.255558 0.00524283 0)
(0.25433 0.00283244 0)
(0.247708 0.000507024 0)
(0.233468 -0.00806952 0)
(0.180484 -0.0207749 0)
(0.168797 -0.116939 0)
)
;

boundaryField
{
    movingWall
    {
        type            fixedValue;
        value           uniform (1 0 0);
    }
    fixedWalls
    {
        type            noSlip;
    }
    frontAndBack
    {
        type            empty;
    }
}


// ************************************************************************* //
