/*--------------------------------*- C++ -*----------------------------------*\
| =========                 |                                                 |
| \\      /  F ield         | OpenFOAM: The Open Source CFD Toolbox           |
|  \\    /   O peration     | Version:  4.1                                   |
|   \\  /    A nd           | Web:      www.OpenFOAM.org                      |
|    \\/     M anipulation  |                                                 |
\*---------------------------------------------------------------------------*/
FoamFile
{
    version     2.0;
    format      ascii;
    class       volScalarField;
    location    "3";
    object      epsilon;
}
// * * * * * * * * * * * * * * * * * * * * * * * * * * * * * * * * * * * * * //

dimensions      [0 2 -3 0 0 0 0];

internalField   nonuniform List<scalar> 
400
(
4.95016e-05
0.000121828
0.000439722
0.00157243
0.00385127
0.00638303
0.0079594
0.00875911
0.00909104
0.00915449
0.00887208
0.00837544
0.00774164
0.00706113
0.00644198
0.00579106
0.00520118
0.00465107
0.00366247
0.00298242
0.000103128
0.000242308
0.000806075
0.0020557
0.00322661
0.00361655
0.00346918
0.00292845
0.00249186
0.00208048
0.00187575
0.00179374
0.00183016
0.00203747
0.00232334
0.00281005
0.00357503
0.0046978
0.00624655
0.0072319
0.000275601
0.000504719
0.00122373
0.00190579
0.00210489
0.00184321
0.00145072
0.00118932
0.00107077
0.00103122
0.00103221
0.00111203
0.00121118
0.00137656
0.0016461
0.00212841
0.0029928
0.00453858
0.00741538
0.0117338
0.000551547
0.000707694
0.00131591
0.00155858
0.00142246
0.00106754
0.000852319
0.000758988
0.000728963
0.000725901
0.000760995
0.000811929
0.000876702
0.000979112
0.00117069
0.00155957
0.00235752
0.0039841
0.0076516
0.0149834
0.000868978
0.000823482
0.00121729
0.0012474
0.00100971
0.000729196
0.000602007
0.000543192
0.00051788
0.000511033
0.000526849
0.00056645
0.000619815
0.000703306
0.000864578
0.00121205
0.00197909
0.00363585
0.00766521
0.0176154
0.00120321
0.00082178
0.00105434
0.00102382
0.000773523
0.00055676
0.000458958
0.000401134
0.000367031
0.000354726
0.000357083
0.000391354
0.000442355
0.00051578
0.000653887
0.000964482
0.00170764
0.00343598
0.00768038
0.019787
0.00154866
0.000797138
0.00091827
0.000862353
0.000637633
0.000457382
0.000372535
0.000311155
0.000270412
0.00025492
0.000254121
0.000283988
0.000335235
0.000405132
0.000521682
0.000792829
0.00149755
0.00328169
0.00780512
0.0217348
0.00186599
0.000748174
0.000802089
0.000742887
0.00056122
0.00040309
0.000320981
0.000262063
0.000220783
0.000205107
0.000204301
0.00023112
0.000283134
0.000353143
0.000456262
0.000686512
0.00134891
0.00319513
0.00806277
0.0235772
0.00219306
0.000682543
0.000704574
0.000663133
0.000511473
0.000376725
0.000301247
0.00024926
0.000211051
0.0001917
0.000189775
0.000213658
0.000265857
0.000336237
0.000431022
0.000632445
0.00123245
0.00312705
0.00848944
0.025449
0.00245223
0.000686275
0.000620985
0.000597606
0.00049202
0.00037656
0.000302325
0.000252261
0.000216716
0.000197569
0.000198777
0.000219195
0.000272807
0.000342838
0.000427232
0.000610366
0.00114745
0.00306498
0.00902461
0.0274575
0.00258364
0.000715651
0.00055387
0.000542154
0.000482451
0.000382544
0.000310995
0.000263376
0.000231693
0.000215884
0.000221135
0.000246331
0.000305558
0.000371076
0.000443542
0.000604468
0.00109137
0.00299603
0.00972273
0.0297292
0.00255095
0.000777629
0.000510467
0.000498801
0.000469067
0.000403131
0.000335555
0.000289472
0.000260898
0.00025057
0.000258566
0.000287451
0.000346185
0.00039767
0.000456875
0.000600606
0.00103518
0.00290839
0.0104151
0.0324052
0.0024238
0.000797772
0.000477312
0.000456773
0.00044911
0.000422099
0.000377479
0.000336189
0.000307871
0.000298728
0.000306901
0.000333664
0.000371824
0.000409426
0.000461497
0.000591864
0.000975167
0.00280197
0.0111266
0.0356933
0.00216298
0.000777932
0.000452785
0.000418174
0.000423948
0.000420735
0.0004062
0.00037823
0.000354654
0.00034331
0.000347069
0.000358912
0.000379994
0.000409214
0.000455304
0.000575332
0.000914454
0.00273194
0.0118018
0.0398709
0.00184812
0.000706905
0.000420685
0.000380885
0.000389635
0.000408752
0.0004073
0.000398114
0.000379622
0.000365274
0.00035875
0.000361978
0.000373891
0.000400402
0.000447221
0.000566446
0.000884404
0.00272533
0.0129263
0.0453547
0.00160344
0.000619702
0.000384526
0.000354491
0.00036625
0.000389921
0.000402141
0.000398931
0.000388917
0.000374697
0.000366246
0.000368563
0.000380429
0.000410074
0.000461246
0.000582446
0.000892786
0.00297751
0.0152499
0.05276
0.00133615
0.000462351
0.000360199
0.000363579
0.00038653
0.000418715
0.000440233
0.000447757
0.000449338
0.000449516
0.00045426
0.00047041
0.000501963
0.000558718
0.000626122
0.000770908
0.00118865
0.0039443
0.0193492
0.0636283
0.00146149
0.000586624
0.000614139
0.000722784
0.000839018
0.000943766
0.00103045
0.00110624
0.00117132
0.00124759
0.00132606
0.00143738
0.00155455
0.00172614
0.00192112
0.00216863
0.0032226
0.00852195
0.0298283
0.0808572
0.00250405
0.00436951
0.0067093
0.00834537
0.00952496
0.0104297
0.0111492
0.0118111
0.0123766
0.0130098
0.0135626
0.0142944
0.0149271
0.0157944
0.016676
0.0178858
0.0222595
0.0360038
0.0698889
0.115308
0.0407082
0.0835529
0.122056
0.145074
0.158156
0.165566
0.169744
0.171995
0.173077
0.173436
0.173324
0.173116
0.172513
0.172305
0.172394
0.173548
0.176071
0.179579
0.191973
0.162364
)
;

boundaryField
{
    movingWall
    {
        Cmu             0.09;
        kappa           0.41;
        E               9.8;
        type            epsilonWallFunction;
        value           nonuniform List<scalar> 
20
(
0.0407082
0.0835529
0.122056
0.145074
0.158156
0.165566
0.169744
0.171995
0.173077
0.173436
0.173324
0.173116
0.172513
0.172305
0.172394
0.173548
0.176071
0.179579
0.191973
0.162364
)
;
    }
    fixedWalls
    {
        Cmu             0.09;
        kappa           0.41;
        E               9.8;
        type            epsilonWallFunction;
        value           nonuniform List<scalar> 
60
(
4.95016e-05
0.000103128
0.000275601
0.000551547
0.000868978
0.00120321
0.00154866
0.00186599
0.00219306
0.00245223
0.00258364
0.00255095
0.0024238
0.00216298
0.00184812
0.00160344
0.00133615
0.00146149
0.00250405
0.0407082
0.00298242
0.0072319
0.0117338
0.0149834
0.0176154
0.019787
0.0217348
0.0235772
0.025449
0.0274575
0.0297292
0.0324052
0.0356933
0.0398709
0.0453547
0.05276
0.0636283
0.0808572
0.115308
0.162364
4.95016e-05
0.000121828
0.000439722
0.00157243
0.00385127
0.00638303
0.0079594
0.00875911
0.00909104
0.00915449
0.00887208
0.00837544
0.00774164
0.00706113
0.00644198
0.00579106
0.00520118
0.00465107
0.00366247
0.00298242
)
;
    }
    frontAndBack
    {
        type            empty;
    }
}


// ************************************************************************* //
