/*--------------------------------*- C++ -*----------------------------------*\
| =========                 |                                                 |
| \\      /  F ield         | OpenFOAM: The Open Source CFD Toolbox           |
|  \\    /   O peration     | Version:  4.1                                   |
|   \\  /    A nd           | Web:      www.OpenFOAM.org                      |
|    \\/     M anipulation  |                                                 |
\*---------------------------------------------------------------------------*/
FoamFile
{
    version     2.0;
    format      ascii;
    class       volScalarField;
    location    "3";
    object      k;
}
// * * * * * * * * * * * * * * * * * * * * * * * * * * * * * * * * * * * * * //

dimensions      [0 2 -2 0 0 0 0];

internalField   nonuniform List<scalar> 
400
(
4.56813e-05
8.35118e-05
0.0001975
0.000461784
0.000836358
0.00116813
0.00135168
0.00144021
0.00147612
0.00148289
0.00145217
0.00139751
0.00132609
0.00124725
0.00117321
0.00109278
0.00101724
0.000944192
0.000805089
0.00070205
7.4634e-05
0.000147827
0.000331769
0.00062685
0.000803137
0.00086448
0.000815344
0.000746566
0.000704873
0.000676829
0.000667013
0.000667948
0.000707316
0.000744391
0.000815251
0.00090295
0.00103215
0.00115217
0.00125425
0.00126725
0.000143967
0.0002792
0.00049531
0.000634335
0.000672838
0.000598819
0.000569336
0.000558171
0.00055888
0.000585052
0.000603354
0.000624728
0.000644703
0.000667683
0.000711343
0.000788553
0.000921029
0.00112512
0.00142249
0.00174992
0.00022879
0.000380646
0.000537907
0.000589206
0.000551787
0.000516324
0.000511144
0.000522461
0.000549258
0.000577667
0.000603796
0.00062349
0.000635284
0.000644353
0.00066943
0.000734616
0.000866161
0.00108253
0.00145785
0.00205977
0.000309689
0.000431248
0.000524325
0.000531094
0.00049164
0.000480311
0.00048136
0.000497887
0.000517066
0.000534375
0.000557865
0.000584574
0.00060778
0.00062402
0.000647639
0.000708358
0.000844472
0.00107174
0.0014722
0.0022945
0.000384605
0.00044513
0.000501415
0.000491581
0.000458624
0.000451876
0.000451055
0.000452093
0.000451356
0.000454559
0.000475765
0.000511633
0.000552598
0.000589482
0.000627366
0.000694497
0.000837475
0.00108982
0.00151241
0.00247945
0.00045505
0.000438777
0.000477675
0.000460299
0.000431735
0.000423983
0.000415876
0.000400302
0.000381545
0.000374453
0.000382625
0.000422438
0.000482636
0.00054516
0.000604619
0.000684385
0.000833902
0.00110454
0.00156015
0.00263967
0.000515213
0.00042351
0.000450798
0.000431785
0.000406875
0.000398799
0.000386841
0.000362503
0.000330975
0.000314916
0.00031412
0.000350933
0.000425132
0.000513055
0.000593164
0.000680475
0.000832306
0.00111502
0.00162657
0.00278685
0.000573758
0.000402393
0.000425897
0.000412074
0.00038695
0.000381065
0.000368523
0.00034212
0.000308593
0.000286478
0.000283996
0.000316858
0.000397949
0.000500675
0.000591611
0.000686773
0.000832314
0.00111837
0.00170078
0.00293248
0.000618081
0.000386601
0.000400307
0.000393237
0.000368449
0.00035695
0.000346653
0.000325567
0.000299272
0.000279811
0.000279188
0.000307348
0.000391985
0.000510374
0.000611504
0.000705841
0.000832767
0.00111419
0.00178311
0.0030848
0.000640058
0.000382024
0.000379512
0.000375531
0.00035634
0.000338762
0.000327136
0.000313075
0.000297034
0.000283677
0.000288317
0.000322748
0.000419488
0.000542728
0.000641283
0.000729222
0.000830179
0.00109058
0.0018697
0.00325267
0.000634654
0.000377782
0.00036513
0.000366192
0.00035688
0.00033924
0.000326428
0.000313821
0.000300447
0.000297202
0.000309227
0.000357787
0.000467715
0.00058268
0.000668257
0.000743561
0.000816395
0.00105202
0.00195072
0.00344498
0.000613356
0.000370138
0.000354442
0.000363334
0.000361165
0.000349263
0.000335387
0.000323923
0.000317616
0.000323464
0.00034984
0.000419095
0.000520018
0.00061151
0.000680166
0.000747639
0.000788561
0.000993817
0.00202245
0.00367417
0.000568419
0.000357679
0.000347792
0.000362013
0.000373561
0.000372849
0.000365216
0.000358484
0.000362576
0.000379822
0.000420836
0.000482971
0.000552302
0.000621823
0.000676475
0.000731544
0.000741186
0.000918053
0.00208258
0.00395541
0.000511523
0.000332195
0.000334952
0.000361933
0.000393003
0.000413401
0.000423519
0.000430069
0.000439398
0.000456968
0.000483788
0.000519099
0.000561641
0.000610042
0.000646778
0.000688189
0.000673526
0.000855845
0.00216813
0.0043101
0.000465032
0.000309828
0.000324845
0.000369025
0.000423424
0.000461361
0.000483831
0.000495155
0.00050077
0.000504903
0.000512295
0.000524713
0.000545574
0.000574986
0.000595319
0.000619752
0.000591556
0.000826799
0.00232952
0.0047672
0.000411408
0.000278584
0.000319765
0.000379851
0.00044009
0.000482774
0.000508045
0.00051848
0.000518875
0.000517035
0.000514432
0.000515481
0.000519864
0.000531159
0.000542705
0.000560638
0.000551588
0.000850198
0.00262162
0.00540105
0.000436597
0.000294786
0.000348555
0.000419088
0.000481869
0.000525986
0.000552178
0.000564804
0.000565525
0.000564647
0.000562855
0.000565784
0.000573095
0.000588807
0.000611604
0.00063054
0.00072226
0.00128148
0.0033624
0.00633639
0.000624959
0.000672222
0.000906138
0.00107381
0.0011987
0.00129599
0.00137291
0.00144361
0.00150254
0.0015706
0.001631
0.00171359
0.00178821
0.00188981
0.00199802
0.00213671
0.00249176
0.00346921
0.00584847
0.00802767
0.0040105
0.00647707
0.0083382
0.00935522
0.00990873
0.0102152
0.0103859
0.0104774
0.0105212
0.0105361
0.0105317
0.0105234
0.0104992
0.0104912
0.0104949
0.010542
0.0106441
0.0107851
0.011276
0.0100847
)
;

boundaryField
{
    movingWall
    {
        type            kqRWallFunction;
        value           nonuniform List<scalar> 
20
(
0.0040105
0.00647707
0.0083382
0.00935522
0.00990873
0.0102152
0.0103859
0.0104774
0.0105212
0.0105361
0.0105317
0.0105234
0.0104992
0.0104912
0.0104949
0.010542
0.0106441
0.0107851
0.011276
0.0100847
)
;
    }
    fixedWalls
    {
        type            kqRWallFunction;
        value           nonuniform List<scalar> 
60
(
4.56813e-05
7.4634e-05
0.000143967
0.00022879
0.000309689
0.000384605
0.00045505
0.000515213
0.000573758
0.000618081
0.000640058
0.000634654
0.000613356
0.000568419
0.000511523
0.000465032
0.000411408
0.000436597
0.000624959
0.0040105
0.00070205
0.00126725
0.00174992
0.00205977
0.0022945
0.00247945
0.00263967
0.00278685
0.00293248
0.0030848
0.00325267
0.00344498
0.00367417
0.00395541
0.0043101
0.0047672
0.00540105
0.00633639
0.00802767
0.0100847
4.56813e-05
8.35118e-05
0.0001975
0.000461784
0.000836358
0.00116813
0.00135168
0.00144021
0.00147612
0.00148289
0.00145217
0.00139751
0.00132609
0.00124725
0.00117321
0.00109278
0.00101724
0.000944192
0.000805089
0.00070205
)
;
    }
    frontAndBack
    {
        type            empty;
    }
}


// ************************************************************************* //
