/*--------------------------------*- C++ -*----------------------------------*\
| =========                 |                                                 |
| \\      /  F ield         | OpenFOAM: The Open Source CFD Toolbox           |
|  \\    /   O peration     | Version:  4.1                                   |
|   \\  /    A nd           | Web:      www.OpenFOAM.org                      |
|    \\/     M anipulation  |                                                 |
\*---------------------------------------------------------------------------*/
FoamFile
{
    version     2.0;
    format      ascii;
    class       volScalarField;
    location    "3";
    object      nut;
}
// * * * * * * * * * * * * * * * * * * * * * * * * * * * * * * * * * * * * * //

dimensions      [0 2 -1 0 0 0 0];

internalField   nonuniform List<scalar> 
400
(
3.79403e-06
5.15218e-06
7.98361e-06
1.22053e-05
1.63464e-05
1.92398e-05
2.0659e-05
2.13126e-05
2.1571e-05
2.16187e-05
2.1392e-05
2.09868e-05
2.04436e-05
1.98277e-05
1.92297e-05
1.85588e-05
1.79056e-05
1.72509e-05
1.59278e-05
1.48734e-05
4.86115e-06
8.11672e-06
1.22896e-05
1.72032e-05
1.79918e-05
1.85977e-05
1.72464e-05
1.71294e-05
1.79449e-05
1.9817e-05
2.1347e-05
2.23856e-05
2.46025e-05
2.44767e-05
2.57462e-05
2.61129e-05
2.68196e-05
2.54321e-05
2.26658e-05
1.99856e-05
6.76844e-06
1.39003e-05
1.80431e-05
1.90023e-05
1.93568e-05
1.75089e-05
2.01093e-05
2.35764e-05
2.62533e-05
2.9873e-05
3.17409e-05
3.1587e-05
3.08854e-05
2.91466e-05
2.76658e-05
2.62935e-05
2.551e-05
2.51027e-05
2.45587e-05
2.34877e-05
8.54148e-06
1.84264e-05
1.97894e-05
2.00469e-05
1.9264e-05
2.24752e-05
2.75884e-05
3.23679e-05
3.72469e-05
4.13734e-05
4.31162e-05
4.30907e-05
4.14311e-05
3.81643e-05
3.44519e-05
3.11429e-05
2.86407e-05
2.64723e-05
2.49985e-05
2.54841e-05
9.93314e-06
2.03255e-05
2.03259e-05
2.03508e-05
2.15448e-05
2.84736e-05
3.46403e-05
4.10724e-05
4.64627e-05
5.02906e-05
5.31637e-05
5.4295e-05
5.36381e-05
4.98305e-05
4.36621e-05
3.72587e-05
3.24299e-05
2.84323e-05
2.5448e-05
2.68982e-05
1.10645e-05
2.17001e-05
2.14614e-05
2.12426e-05
2.44727e-05
3.30075e-05
3.9896e-05
4.58573e-05
4.9955e-05
5.24239e-05
5.70504e-05
6.01991e-05
6.21285e-05
6.06345e-05
5.41729e-05
4.5008e-05
3.6965e-05
3.11103e-05
2.6804e-05
2.79624e-05
1.20339e-05
2.17369e-05
2.23634e-05
2.21125e-05
2.63091e-05
3.53721e-05
4.17834e-05
4.6349e-05
4.84518e-05
4.95032e-05
5.185e-05
5.65549e-05
6.25362e-05
6.60229e-05
6.30666e-05
5.31696e-05
4.17917e-05
3.34589e-05
2.80669e-05
2.88526e-05
1.28029e-05
2.15758e-05
2.28026e-05
2.25868e-05
2.65479e-05
3.55098e-05
4.19592e-05
4.51293e-05
4.46545e-05
4.35163e-05
4.34673e-05
4.79572e-05
5.7451e-05
6.70841e-05
6.94029e-05
6.07042e-05
4.62193e-05
3.50201e-05
2.95329e-05
2.96467e-05
1.35098e-05
2.13508e-05
2.317e-05
2.30458e-05
2.63469e-05
3.4691e-05
4.05741e-05
4.22615e-05
4.06095e-05
3.85304e-05
3.82496e-05
4.22915e-05
5.36104e-05
6.70979e-05
7.30829e-05
6.71191e-05
5.05878e-05
3.59978e-05
3.06662e-05
3.04118e-05
1.40207e-05
1.96006e-05
2.32245e-05
2.32882e-05
2.48321e-05
3.04524e-05
3.57733e-05
3.78157e-05
3.71949e-05
3.56661e-05
3.52916e-05
3.87859e-05
5.06904e-05
6.83801e-05
7.87729e-05
7.34624e-05
5.43946e-05
3.64532e-05
3.17082e-05
3.11916e-05
1.42708e-05
1.83536e-05
2.34038e-05
2.34106e-05
2.36874e-05
2.69992e-05
3.09704e-05
3.34937e-05
3.4272e-05
3.35483e-05
3.38319e-05
3.80584e-05
5.18309e-05
7.14406e-05
8.34462e-05
7.91752e-05
5.68349e-05
3.57285e-05
3.23592e-05
3.20286e-05
1.42107e-05
1.65178e-05
2.35056e-05
2.41953e-05
2.44372e-05
2.56927e-05
2.85794e-05
3.06197e-05
3.11392e-05
3.1726e-05
3.32833e-05
4.00801e-05
5.68717e-05
7.68389e-05
8.79697e-05
8.28487e-05
5.79466e-05
3.42484e-05
3.28826e-05
3.29611e-05
1.39692e-05
1.54558e-05
2.36881e-05
2.60108e-05
2.61397e-05
2.60096e-05
2.6819e-05
2.80894e-05
2.94902e-05
3.15224e-05
3.58908e-05
4.7376e-05
6.54549e-05
8.22005e-05
9.022e-05
8.49972e-05
5.73897e-05
3.17243e-05
3.30855e-05
3.40387e-05
1.3444e-05
1.48009e-05
2.40431e-05
2.82056e-05
2.96247e-05
2.97371e-05
2.9553e-05
3.05793e-05
3.33608e-05
3.78196e-05
4.59253e-05
5.84919e-05
7.22467e-05
8.50405e-05
9.04575e-05
8.37153e-05
5.40674e-05
2.77655e-05
3.30747e-05
3.53159e-05
1.27421e-05
1.40497e-05
2.40022e-05
3.09531e-05
3.5676e-05
3.76293e-05
3.96345e-05
4.1813e-05
4.57728e-05
5.14512e-05
5.87165e-05
6.69976e-05
7.59303e-05
8.36499e-05
8.41842e-05
7.52486e-05
4.61638e-05
2.41888e-05
3.27296e-05
3.68634e-05
1.21382e-05
1.39413e-05
2.46984e-05
3.45739e-05
4.4057e-05
4.91302e-05
5.23904e-05
5.53129e-05
5.80313e-05
6.1232e-05
6.44926e-05
6.72319e-05
7.04167e-05
7.25596e-05
6.91527e-05
5.93503e-05
3.52767e-05
2.06628e-05
3.20264e-05
3.87671e-05
1.14007e-05
1.51072e-05
2.55483e-05
3.57167e-05
4.50964e-05
5.0097e-05
5.27673e-05
5.40337e-05
5.39257e-05
5.35226e-05
5.24318e-05
5.08383e-05
4.84564e-05
4.54463e-05
4.23362e-05
3.66949e-05
2.30367e-05
1.64935e-05
3.19683e-05
4.12619e-05
1.17384e-05
1.33321e-05
1.7804e-05
2.18698e-05
2.49074e-05
2.63831e-05
2.66303e-05
2.59532e-05
2.45738e-05
2.29999e-05
2.15017e-05
2.00434e-05
1.90147e-05
1.80765e-05
1.75238e-05
1.65e-05
1.45688e-05
1.7343e-05
3.41124e-05
4.46897e-05
1.40379e-05
9.30753e-06
1.10142e-05
1.24352e-05
1.35769e-05
1.44935e-05
1.52153e-05
1.588e-05
1.64169e-05
1.70649e-05
1.76525e-05
1.84879e-05
1.92799e-05
2.03506e-05
2.15452e-05
2.29734e-05
2.51037e-05
3.00854e-05
4.40473e-05
5.02993e-05
3.55595e-05
4.51895e-05
5.12656e-05
5.42952e-05
5.58717e-05
5.67242e-05
5.71924e-05
5.74425e-05
5.75619e-05
5.76049e-05
5.75942e-05
5.75731e-05
5.7509e-05
5.74904e-05
5.75018e-05
5.76321e-05
5.79123e-05
5.82952e-05
5.96091e-05
5.63744e-05
)
;

boundaryField
{
    movingWall
    {
        type            nutkWallFunction;
        Cmu             0.09;
        kappa           0.41;
        E               9.8;
        value           nonuniform List<scalar> 
20
(
0
0
6.61535e-07
1.15949e-06
1.41743e-06
1.55672e-06
1.63324e-06
1.67394e-06
1.69337e-06
1.69994e-06
1.698e-06
1.69435e-06
1.68363e-06
1.68006e-06
1.68173e-06
1.70255e-06
1.7476e-06
1.80939e-06
2.02098e-06
1.49771e-06
)
;
    }
    fixedWalls
    {
        type            nutkWallFunction;
        Cmu             0.09;
        kappa           0.41;
        E               9.8;
        value           nonuniform List<scalar> 
60
(
0
0
0
0
0
0
0
0
0
0
0
0
0
0
0
0
0
0
0
0
0
0
0
0
0
0
0
0
0
0
0
0
0
0
0
0
0
0
5.02572e-07
1.49771e-06
0
0
0
0
0
0
0
0
0
0
0
0
0
0
0
0
0
0
0
0
)
;
    }
    frontAndBack
    {
        type            empty;
    }
}


// ************************************************************************* //
