/*--------------------------------*- C++ -*----------------------------------*\
| =========                 |                                                 |
| \\      /  F ield         | OpenFOAM: The Open Source CFD Toolbox           |
|  \\    /   O peration     | Version:  4.1                                   |
|   \\  /    A nd           | Web:      www.OpenFOAM.org                      |
|    \\/     M anipulation  |                                                 |
\*---------------------------------------------------------------------------*/
FoamFile
{
    version     2.0;
    format      ascii;
    class       volScalarField;
    location    "3";
    object      p;
}
// * * * * * * * * * * * * * * * * * * * * * * * * * * * * * * * * * * * * * //

dimensions      [0 2 -2 0 0 0 0];

internalField   nonuniform List<scalar> 
400
(
2.98865e-08
-2.63641e-05
-6.8187e-05
-0.000129831
-0.00034096
-0.000986592
-0.00204088
-0.00323794
-0.00427825
-0.00500447
-0.00533015
-0.00522388
-0.00467242
-0.0036353
-0.00206549
2.9312e-05
0.00251299
0.0049697
0.00668462
0.00715827
4.29371e-05
9.63932e-06
-6.43811e-05
-0.000237278
-0.000665247
-0.00151832
-0.00268508
-0.00386991
-0.00487908
-0.00556325
-0.00584802
-0.00573875
-0.00524806
-0.00433923
-0.00296302
-0.00108947
0.00122164
0.003673
0.0055968
0.00637325
4.1047e-05
-4.18777e-05
-0.000222941
-0.0006378
-0.00142212
-0.00257242
-0.00385716
-0.00504221
-0.00601515
-0.00661482
-0.0068116
-0.00664281
-0.00614534
-0.0053557
-0.00423892
-0.00272799
-0.000776492
0.00150694
0.00360825
0.00468211
-0.000144535
-0.000291339
-0.000634667
-0.00135059
-0.00248169
-0.0038696
-0.00522569
-0.00637051
-0.00717976
-0.00761423
-0.00769754
-0.00746573
-0.00697974
-0.00629262
-0.00540909
-0.0042752
-0.00277694
-0.000863608
0.00117218
0.00232315
-0.000580004
-0.00079626
-0.00130363
-0.00225948
-0.00362953
-0.00513242
-0.00646607
-0.00750805
-0.00819255
-0.00850725
-0.00848645
-0.00818726
-0.00768926
-0.0070623
-0.00633757
-0.00549046
-0.00441276
-0.00295589
-0.00117915
-8.87444e-05
-0.00124394
-0.00150831
-0.00214
-0.00322462
-0.00470081
-0.00623051
-0.00751056
-0.00846665
-0.00906355
-0.00929095
-0.00918494
-0.00881613
-0.00828704
-0.00768256
-0.00704882
-0.0063838
-0.00561473
-0.00456186
-0.00321188
-0.00219728
-0.00202044
-0.00229811
-0.00298649
-0.00411541
-0.00560225
-0.00711881
-0.00834911
-0.00924908
-0.00979
-0.00995531
-0.00977614
-0.00933562
-0.00876082
-0.00815448
-0.00756788
-0.00700722
-0.00643198
-0.00567132
-0.00473571
-0.00384728
-0.00276001
-0.00302726
-0.0037084
-0.00482302
-0.00626333
-0.00774526
-0.00894086
-0.00980936
-0.0103203
-0.010447
-0.0102092
-0.00969602
-0.00906845
-0.00845042
-0.00788975
-0.00738861
-0.00693634
-0.00637013
-0.00574713
-0.00499487
-0.00336891
-0.00359518
-0.00422671
-0.0052766
-0.00663183
-0.00805834
-0.00922213
-0.010071
-0.0105638
-0.0106651
-0.0103832
-0.00981482
-0.00915393
-0.00853773
-0.00800232
-0.00754009
-0.00717983
-0.00670904
-0.00631081
-0.00568632
-0.00376733
-0.00397738
-0.00452674
-0.00545267
-0.00666846
-0.00800798
-0.00913174
-0.00995899
-0.0104318
-0.0105141
-0.010213
-0.00963446
-0.00898474
-0.00840052
-0.00790596
-0.0074801
-0.00720162
-0.00673824
-0.00654372
-0.00597769
-0.00396604
-0.00415187
-0.00460337
-0.00537231
-0.00640085
-0.0075709
-0.00863152
-0.0094234
-0.00987542
-0.00995498
-0.00967669
-0.00915343
-0.00857408
-0.00805941
-0.00762727
-0.00725164
-0.00702221
-0.00652402
-0.00654688
-0.00593398
-0.00402257
-0.00416347
-0.00450201
-0.00508473
-0.00589938
-0.00685161
-0.00778351
-0.00851057
-0.00894313
-0.00904723
-0.00884961
-0.00844791
-0.00799267
-0.00757891
-0.00722047
-0.00689119
-0.0066996
-0.00613853
-0.00641094
-0.00558368
-0.00399953
-0.00408576
-0.00430913
-0.00470603
-0.00529882
-0.0060319
-0.0067955
-0.00743531
-0.00785245
-0.00800737
-0.007924
-0.00767671
-0.00736089
-0.00704667
-0.00675272
-0.00645674
-0.00629597
-0.00565444
-0.00617795
-0.00498612
-0.00393998
-0.00396816
-0.00408392
-0.0043291
-0.00473602
-0.00528059
-0.00589121
-0.00644736
-0.00686194
-0.00708384
-0.00710836
-0.00698348
-0.00677594
-0.00653592
-0.00628682
-0.00600584
-0.00586692
-0.00514774
-0.00587239
-0.004263
-0.00387265
-0.00384196
-0.00386585
-0.00399722
-0.00427443
-0.00468872
-0.00518973
-0.0056875
-0.00610025
-0.00635962
-0.00645947
-0.00642145
-0.00628881
-0.00609708
-0.00587304
-0.00559069
-0.00546372
-0.00465391
-0.00555112
-0.00356488
-0.00381602
-0.0037015
-0.00364002
-0.00369406
-0.00389642
-0.00424029
-0.00468009
-0.00514031
-0.00554248
-0.00582758
-0.00598052
-0.00600428
-0.00592565
-0.00576676
-0.00555636
-0.00526791
-0.00512469
-0.00419081
-0.005238
-0.002761
-0.00376667
-0.00357073
-0.00344823
-0.003423
-0.00356468
-0.00386172
-0.00426595
-0.00470675
-0.00511555
-0.0054369
-0.0056365
-0.00571627
-0.00569019
-0.00556337
-0.0053637
-0.00506747
-0.00484665
-0.00372584
-0.00465462
-0.000481902
-0.00361865
-0.00329589
-0.00319987
-0.00312784
-0.00323302
-0.00351099
-0.00391126
-0.00435955
-0.00478679
-0.005142
-0.0053948
-0.0055249
-0.00553693
-0.00542797
-0.00521014
-0.00487205
-0.00445025
-0.00300118
-0.00234916
0.00686053
-0.00536705
-0.00431199
-0.00367771
-0.00322377
-0.00314834
-0.00335733
-0.00373804
-0.00419219
-0.00464579
-0.00503232
-0.00532369
-0.00548535
-0.00552546
-0.00542819
-0.00519159
-0.00468588
-0.00360496
-0.000915955
0.00358068
0.0205355
-0.00096376
0.000194685
-0.000781164
-0.00154859
-0.00209606
-0.00260361
-0.00315429
-0.00372866
-0.00427159
-0.00472889
-0.00506362
-0.00526096
-0.00528993
-0.00512333
-0.00463586
-0.00367674
-0.00156812
0.00326887
0.0126821
0.0313444
)
;

boundaryField
{
    movingWall
    {
        type            zeroGradient;
    }
    fixedWalls
    {
        type            zeroGradient;
    }
    frontAndBack
    {
        type            empty;
    }
}


// ************************************************************************* //
