/*--------------------------------*- C++ -*----------------------------------*\
| =========                 |                                                 |
| \\      /  F ield         | OpenFOAM: The Open Source CFD Toolbox           |
|  \\    /   O peration     | Version:  4.1                                   |
|   \\  /    A nd           | Web:      www.OpenFOAM.org                      |
|    \\/     M anipulation  |                                                 |
\*---------------------------------------------------------------------------*/
FoamFile
{
    version     2.0;
    format      ascii;
    class       surfaceScalarField;
    location    "3";
    object      phi;
}
// * * * * * * * * * * * * * * * * * * * * * * * * * * * * * * * * * * * * * //

dimensions      [0 3 -1 0 0 0 0];

internalField   nonuniform List<scalar> 
760
(
-3.29571e-08
3.29541e-08
-1.81742e-07
1.48785e-07
-5.50566e-07
3.68824e-07
-1.27363e-06
7.23065e-07
-2.33571e-06
1.06208e-06
-3.51088e-06
1.17516e-06
-4.58112e-06
1.07024e-06
-5.4678e-06
8.86674e-07
-6.13061e-06
6.62813e-07
-6.57319e-06
4.42577e-07
-6.83318e-06
2.59997e-07
-6.91387e-06
8.06849e-08
-6.82831e-06
-8.55584e-08
-6.57144e-06
-2.56873e-07
-6.10336e-06
-4.6808e-07
-5.35645e-06
-7.46904e-07
-4.26246e-06
-1.09399e-06
-2.81069e-06
-1.45177e-06
-1.20298e-06
-1.6077e-06
-1.20298e-06
-2.57534e-07
2.90488e-07
-7.58952e-07
6.50203e-07
-1.56179e-06
1.17166e-06
-2.63056e-06
1.79184e-06
-3.7732e-06
2.20472e-06
-4.78249e-06
2.18445e-06
-5.60338e-06
1.89113e-06
-6.2315e-06
1.5148e-06
-6.68433e-06
1.11564e-06
-6.97569e-06
7.33931e-07
-7.0973e-06
3.81613e-07
-7.04977e-06
3.31551e-08
-6.89207e-06
-2.43259e-07
-6.60095e-06
-5.47996e-07
-6.15404e-06
-9.14993e-07
-5.49858e-06
-1.40236e-06
-4.54712e-06
-2.04545e-06
-3.22352e-06
-2.77537e-06
-1.57524e-06
-3.25599e-06
-2.77822e-06
-5.17887e-07
8.08375e-07
-1.2762e-06
1.40851e-06
-2.22923e-06
2.12469e-06
-3.27029e-06
2.8329e-06
-4.2006e-06
3.13503e-06
-4.93055e-06
2.9144e-06
-5.46528e-06
2.42586e-06
-5.818e-06
1.86753e-06
-5.99746e-06
1.29511e-06
-6.03912e-06
7.75586e-07
-5.97172e-06
3.14209e-07
-5.85392e-06
-8.46368e-08
-5.66059e-06
-4.36598e-07
-5.40896e-06
-7.9962e-07
-5.0887e-06
-1.23526e-06
-4.65837e-06
-1.83269e-06
-4.01954e-06
-2.68428e-06
-3.02754e-06
-3.76737e-06
-1.64071e-06
-4.64282e-06
-4.41894e-06
-6.66398e-07
1.47477e-06
-1.48789e-06
2.23e-06
-2.39072e-06
3.02753e-06
-3.24967e-06
3.69184e-06
-3.9235e-06
3.80886e-06
-4.38563e-06
3.37653e-06
-4.66861e-06
2.70884e-06
-4.80836e-06
2.00728e-06
-4.83934e-06
1.32608e-06
-4.78495e-06
7.21198e-07
-4.65423e-06
1.83486e-07
-4.46543e-06
-2.73429e-07
-4.23673e-06
-6.65301e-07
-3.99314e-06
-1.04321e-06
-3.74844e-06
-1.47995e-06
-3.48915e-06
-2.09198e-06
-3.14853e-06
-3.0249e-06
-2.52456e-06
-4.39134e-06
-1.4499e-06
-5.71748e-06
-5.86883e-06
-6.65406e-07
2.14018e-06
-1.41453e-06
2.97913e-06
-2.17943e-06
3.79243e-06
-2.82441e-06
4.33683e-06
-3.29248e-06
4.27693e-06
-3.59347e-06
3.67752e-06
-3.77263e-06
2.888e-06
-3.8631e-06
2.09775e-06
-3.87166e-06
1.33464e-06
-3.79044e-06
6.39981e-07
-3.6233e-06
1.63417e-08
-3.39219e-06
-5.04534e-07
-3.12738e-06
-9.3011e-07
-2.86201e-06
-1.30858e-06
-2.62444e-06
-1.71752e-06
-2.43397e-06
-2.28245e-06
-2.25687e-06
-3.202e-06
-1.9302e-06
-4.71801e-06
-1.17797e-06
-6.46971e-06
-7.04681e-06
-5.63916e-07
2.70409e-06
-1.1716e-06
3.58681e-06
-1.75628e-06
4.37711e-06
-2.20758e-06
4.78813e-06
-2.54693e-06
4.61628e-06
-2.77752e-06
3.9081e-06
-2.93439e-06
3.04487e-06
-3.02593e-06
2.18929e-06
-3.04447e-06
1.35318e-06
-2.96993e-06
5.65437e-07
-2.80108e-06
-1.52507e-07
-2.56208e-06
-7.4353e-07
-2.29314e-06
-1.19905e-06
-2.0315e-06
-1.57023e-06
-1.80458e-06
-1.94443e-06
-1.64262e-06
-2.44441e-06
-1.55451e-06
-3.29012e-06
-1.44194e-06
-4.83058e-06
-9.21654e-07
-6.98999e-06
-7.96846e-06
-4.03566e-07
3.10766e-06
-8.39616e-07
4.02286e-06
-1.22598e-06
4.76347e-06
-1.51774e-06
5.07989e-06
-1.76191e-06
4.86045e-06
-1.95892e-06
4.10511e-06
-2.11319e-06
3.19915e-06
-2.21462e-06
2.29072e-06
-2.25029e-06
1.38885e-06
-2.19554e-06
5.10682e-07
-2.04504e-06
-3.03003e-07
-1.82238e-06
-9.66193e-07
-1.57882e-06
-1.44262e-06
-1.35429e-06
-1.79475e-06
-1.16949e-06
-2.12924e-06
-1.04742e-06
-2.56648e-06
-1.01176e-06
-3.32578e-06
-9.97426e-07
-4.84491e-06
-7.28098e-07
-7.25932e-06
-8.69656e-06
-2.23327e-07
3.33099e-06
-4.6595e-07
4.26548e-06
-6.54646e-07
4.95216e-06
-8.08946e-07
5.23419e-06
-9.60881e-07
5.01239e-06
-1.11986e-06
4.26409e-06
-1.25601e-06
3.3353e-06
-1.35301e-06
2.38772e-06
-1.39662e-06
1.43247e-06
-1.36655e-06
4.80605e-07
-1.25609e-06
-4.13458e-07
-1.08378e-06
-1.13851e-06
-9.03786e-07
-1.62261e-06
-7.52406e-07
-1.94613e-06
-6.42242e-07
-2.2394e-06
-5.8732e-07
-2.6214e-06
-6.17924e-07
-3.29518e-06
-6.64626e-07
-4.79821e-06
-5.52591e-07
-7.37135e-06
-9.24915e-06
-2.60591e-08
3.35705e-06
-9.31742e-08
4.3326e-06
-1.10515e-07
4.9695e-06
-1.29348e-07
5.25303e-06
-1.71432e-07
5.05447e-06
-2.61977e-07
4.35463e-06
-3.53617e-07
3.42694e-06
-4.23296e-07
2.4574e-06
-4.54017e-07
1.46319e-06
-4.40031e-07
4.6662e-07
-3.82069e-07
-4.7142e-07
-3.0213e-07
-1.21845e-06
-2.35487e-07
-1.68925e-06
-1.93862e-07
-1.98776e-06
-1.8169e-07
-2.25157e-06
-2.10629e-07
-2.59247e-06
-3.07987e-07
-3.19782e-06
-4.30964e-07
-4.67523e-06
-4.39424e-07
-7.36289e-06
-9.68858e-06
1.13805e-07
3.24324e-06
2.20751e-07
4.22565e-06
3.879e-07
4.80235e-06
5.34989e-07
5.10594e-06
6.38961e-07
4.9505e-06
6.31864e-07
4.36173e-06
5.9389e-07
3.46491e-06
5.61535e-07
2.48975e-06
5.44067e-07
1.48066e-06
5.32382e-07
4.78304e-07
5.15347e-07
-4.54385e-07
4.74103e-07
-1.1772e-06
4.04276e-07
-1.61942e-06
3.19256e-07
-1.90274e-06
2.21805e-07
-2.15412e-06
9.97701e-08
-2.47043e-06
-5.19703e-08
-3.04608e-06
-2.55515e-07
-4.47168e-06
-3.42947e-07
-7.27546e-06
-1.00315e-05
2.31529e-07
3.01171e-06
4.62136e-07
3.99504e-06
7.61897e-07
4.50259e-06
1.08125e-06
4.78659e-06
1.34107e-06
4.69068e-06
1.47699e-06
4.22581e-06
1.5252e-06
3.41671e-06
1.53504e-06
2.47991e-06
1.51935e-06
1.49634e-06
1.4661e-06
5.31556e-07
1.35311e-06
-3.41398e-07
1.17891e-06
-1.003e-06
9.71921e-07
-1.41244e-06
7.65254e-07
-1.69607e-06
5.66229e-07
-1.9551e-06
3.65522e-07
-2.26972e-06
1.36382e-07
-2.81694e-06
-1.35084e-07
-4.20022e-06
-3.01684e-07
-7.10886e-06
-1.03332e-05
3.09457e-07
2.70226e-06
6.16268e-07
3.68823e-06
9.91227e-07
4.12763e-06
1.42577e-06
4.35205e-06
1.82128e-06
4.29516e-06
2.1162e-06
3.93089e-06
2.27796e-06
3.25494e-06
2.34208e-06
2.4158e-06
2.32758e-06
1.51085e-06
2.22836e-06
6.30769e-07
2.01851e-06
-1.3155e-07
1.72796e-06
-7.12448e-07
1.41618e-06
-1.10065e-06
1.12018e-06
-1.40007e-06
8.42621e-07
-1.67754e-06
5.71605e-07
-1.99871e-06
2.80674e-07
-2.52601e-06
-5.03696e-08
-3.86917e-06
-2.6378e-07
-6.89545e-06
-1.0597e-05
3.3352e-07
2.36874e-06
6.74268e-07
3.34748e-06
1.07177e-06
3.73014e-06
1.54378e-06
3.88003e-06
2.01841e-06
3.82053e-06
2.42145e-06
3.52785e-06
2.68918e-06
2.98722e-06
2.81654e-06
2.28843e-06
2.81245e-06
1.51494e-06
2.6718e-06
7.71411e-07
2.41312e-06
1.27137e-07
2.07282e-06
-3.72147e-07
1.72075e-06
-7.48585e-07
1.3803e-06
-1.05962e-06
1.05306e-06
-1.3503e-06
7.32174e-07
-1.67782e-06
3.98704e-07
-2.19254e-06
1.87548e-08
-3.48922e-06
-2.27234e-07
-6.64946e-06
-1.08242e-05
3.16797e-07
2.05194e-06
6.63694e-07
3.00059e-06
1.05431e-06
3.33952e-06
1.5095e-06
3.42484e-06
1.99007e-06
3.33997e-06
2.42825e-06
3.08968e-06
2.75215e-06
2.66332e-06
2.9267e-06
2.11388e-06
2.94454e-06
1.49711e-06
2.82007e-06
8.95887e-07
2.57574e-06
3.71466e-07
2.26014e-06
-5.65529e-08
1.91675e-06
-4.05192e-07
1.56687e-06
-7.09739e-07
1.21543e-06
-9.98863e-07
8.611e-07
-1.32349e-06
4.99674e-07
-1.83111e-06
1.22724e-07
-3.11227e-06
-1.34221e-07
-6.39252e-06
-1.09584e-05
2.42535e-07
1.8094e-06
5.7431e-07
2.66881e-06
9.59765e-07
2.95407e-06
1.39495e-06
2.98965e-06
1.85233e-06
2.88259e-06
2.2812e-06
2.6608e-06
2.62026e-06
2.32426e-06
2.83527e-06
1.89886e-06
2.89641e-06
1.43597e-06
2.81671e-06
9.75593e-07
2.62647e-06
5.61705e-07
2.36244e-06
2.07471e-07
2.05219e-06
-9.49371e-08
1.71404e-06
-3.71588e-07
1.35207e-06
-6.36899e-07
9.70784e-07
-9.42202e-07
5.93778e-07
-1.4541e-06
2.37418e-07
-2.75591e-06
2.18609e-09
-6.15729e-06
-1.09563e-05
1.71214e-07
1.63819e-06
4.82884e-07
2.35714e-06
8.56092e-07
2.58086e-06
1.27772e-06
2.56802e-06
1.712e-06
2.44831e-06
2.11931e-06
2.25349e-06
2.45427e-06
1.9893e-06
2.68221e-06
1.67092e-06
2.78497e-06
1.33321e-06
2.76733e-06
9.93234e-07
2.64549e-06
6.83549e-07
2.44214e-06
4.1082e-07
2.17344e-06
1.73765e-07
1.85642e-06
-5.45715e-08
1.48958e-06
-2.70059e-07
1.0881e-06
-5.40722e-07
7.16196e-07
-1.0822e-06
3.89004e-07
-2.42872e-06
1.20569e-07
-5.88885e-06
-1.08357e-05
-6.1543e-08
1.69973e-06
2.51763e-07
2.04383e-06
6.84302e-07
2.14832e-06
1.13532e-06
2.11701e-06
1.57333e-06
2.0103e-06
1.97702e-06
1.8498e-06
2.31604e-06
1.65028e-06
2.56513e-06
1.42184e-06
2.71539e-06
1.18294e-06
2.75944e-06
9.49185e-07
2.70225e-06
7.40737e-07
2.55801e-06
5.55064e-07
2.33642e-06
3.95349e-07
2.0476e-06
2.34248e-07
1.69372e-06
8.38296e-08
1.30597e-06
-1.52972e-07
9.50259e-07
-7.2649e-07
6.24779e-07
-2.10324e-06
2.58489e-07
-5.52256e-06
-1.05772e-05
-2.80792e-07
1.98053e-06
1.91325e-08
1.74391e-06
4.11026e-07
1.75643e-06
8.83208e-07
1.64483e-06
1.37483e-06
1.51868e-06
1.83963e-06
1.38499e-06
2.24381e-06
1.2461e-06
2.56423e-06
1.10142e-06
2.7846e-06
9.62571e-07
2.90479e-06
8.28995e-07
2.9335e-06
7.12027e-07
2.8832e-06
6.0537e-07
2.75759e-06
5.20952e-07
2.56012e-06
4.31719e-07
2.31035e-06
3.33602e-07
2.07288e-06
8.45018e-08
1.77869e-06
-4.32307e-07
1.4445e-06
-1.76904e-06
7.10259e-07
-4.78833e-06
-9.86694e-06
-4.90109e-07
2.47063e-06
-1.57725e-07
1.41153e-06
5.32036e-07
1.06667e-06
1.24198e-06
9.34879e-07
1.90299e-06
8.57673e-07
2.50383e-06
7.8415e-07
3.03449e-06
7.15441e-07
3.49133e-06
6.44575e-07
3.86929e-06
5.84608e-07
4.17956e-06
5.18724e-07
4.41823e-06
4.73366e-07
4.61242e-06
4.11174e-07
4.75262e-06
3.8075e-07
4.88031e-06
3.04032e-07
4.96173e-06
2.52182e-07
4.9806e-06
6.56332e-08
4.82386e-06
-2.75569e-07
4.26724e-06
-1.21242e-06
2.46003e-06
-2.98111e-06
-7.40691e-06
2.47063e-06
3.88216e-06
4.94883e-06
5.88371e-06
6.74138e-06
7.52553e-06
8.24097e-06
8.88554e-06
9.47015e-06
9.98888e-06
1.04622e-05
1.08734e-05
1.12542e-05
1.15582e-05
1.18104e-05
1.1876e-05
1.16004e-05
1.0388e-05
7.40691e-06
)
;

boundaryField
{
    movingWall
    {
        type            calculated;
        value           uniform 0;
    }
    fixedWalls
    {
        type            calculated;
        value           uniform 0;
    }
    frontAndBack
    {
        type            empty;
        value           nonuniform 0();
    }
}


// ************************************************************************* //
