/*--------------------------------*- C++ -*----------------------------------*\
| =========                 |                                                 |
| \\      /  F ield         | OpenFOAM: The Open Source CFD Toolbox           |
|  \\    /   O peration     | Version:  4.1                                   |
|   \\  /    A nd           | Web:      www.OpenFOAM.org                      |
|    \\/     M anipulation  |                                                 |
\*---------------------------------------------------------------------------*/
FoamFile
{
    version     2.0;
    format      ascii;
    class       volVectorField;
    location    "3";
    object      U;
}
// * * * * * * * * * * * * * * * * * * * * * * * * * * * * * * * * * * * * * //

dimensions      [0 1 -1 0 0 0 0];

internalField   nonuniform List<vector> 
400
(
(8.5339e-05 -0.000531873 0)
(-0.00147918 6.63419e-05 0)
(-0.00576322 0.00122969 0)
(-0.0154043 0.00479474 0)
(-0.033303 0.0102603 0)
(-0.0591969 0.0132471 0)
(-0.083844 0.011782 0)
(-0.10314 0.00970275 0)
(-0.118382 0.00769304 0)
(-0.128557 0.00542898 0)
(-0.135222 0.00351714 0)
(-0.138245 0.00172376 0)
(-0.13879 -0.000371124 0)
(-0.135011 -0.00242051 0)
(-0.12753 -0.00501692 0)
(-0.114379 -0.00835591 0)
(-0.0951776 -0.0121506 0)
(-0.0691296 -0.0155266 0)
(-0.0390205 -0.0156972 0)
(-0.0129507 -0.00873383 0)
(-0.00175032 0.0020813 0)
(-0.00850989 0.00643452 0)
(-0.0212315 0.0144672 0)
(-0.0397885 0.025448 0)
(-0.0632333 0.0333685 0)
(-0.0876993 0.0339249 0)
(-0.106855 0.0298887 0)
(-0.120417 0.0247259 0)
(-0.130814 0.0181037 0)
(-0.137894 0.0116701 0)
(-0.141384 0.00641006 0)
(-0.142275 0.00110376 0)
(-0.140164 -0.0036663 0)
(-0.136058 -0.00914882 0)
(-0.128319 -0.0156974 0)
(-0.11684 -0.0241733 0)
(-0.0997346 -0.0347016 0)
(-0.0765148 -0.0454703 0)
(-0.0475661 -0.0504832 0)
(-0.0181737 -0.0381299 0)
(-0.00424379 0.01033 0)
(-0.016357 0.0205199 0)
(-0.033388 0.0334047 0)
(-0.0541121 0.0468034 0)
(-0.0758077 0.053591 0)
(-0.0943517 0.0508818 0)
(-0.106054 0.0429351 0)
(-0.11447 0.0332553 0)
(-0.119949 0.0238904 0)
(-0.120808 0.0153121 0)
(-0.120352 0.00707743 0)
(-0.118033 -0.000320971 0)
(-0.11545 -0.00729305 0)
(-0.111222 -0.0145383 0)
(-0.105913 -0.0233842 0)
(-0.0981862 -0.0353193 0)
(-0.0867479 -0.0514308 0)
(-0.0695585 -0.0702635 0)
(-0.0458792 -0.0837423 0)
(-0.0190165 -0.0756049 0)
(-0.00606135 0.0227465 0)
(-0.0201887 0.0365477 0)
(-0.0376387 0.0518725 0)
(-0.0567933 0.0653911 0)
(-0.0742922 0.0694814 0)
(-0.0857354 0.0628498 0)
(-0.092233 0.0513129 0)
(-0.0961285 0.0389239 0)
(-0.0970938 0.0264251 0)
(-0.0964241 0.0151366 0)
(-0.094515 0.00526552 0)
(-0.0909945 -0.00319937 0)
(-0.0869202 -0.0106732 0)
(-0.082339 -0.0182176 0)
(-0.0779066 -0.0272287 0)
(-0.0732443 -0.0400187 0)
(-0.0670154 -0.0590357 0)
(-0.0562279 -0.0846265 0)
(-0.0389873 -0.106836 0)
(-0.0168823 -0.106671 0)
(-0.00627379 0.0359527 0)
(-0.0197579 0.0520559 0)
(-0.0352089 0.0681434 0)
(-0.051477 0.0804987 0)
(-0.0638249 0.0808068 0)
(-0.0709741 0.0704856 0)
(-0.0746485 0.0559847 0)
(-0.0771574 0.0411091 0)
(-0.0777652 0.0266095 0)
(-0.076839 0.0135853 0)
(-0.0741941 0.00204591 0)
(-0.0699833 -0.00772771 0)
(-0.0649835 -0.0158871 0)
(-0.0597247 -0.0234192 0)
(-0.0549253 -0.0318046 0)
(-0.0510449 -0.0436559 0)
(-0.0477517 -0.0628668 0)
(-0.0419146 -0.0932834 0)
(-0.0304508 -0.124301 0)
(-0.0143781 -0.13183 0)
(-0.00529715 0.0482129 0)
(-0.0165204 0.0655979 0)
(-0.0292479 0.0817407 0)
(-0.0409113 0.0912993 0)
(-0.0499427 0.0888149 0)
(-0.0547684 0.0756993 0)
(-0.0576624 0.0591255 0)
(-0.0601853 0.0426291 0)
(-0.0611066 0.0266082 0)
(-0.0604044 0.0118196 0)
(-0.0577213 -0.00146721 0)
(-0.0534415 -0.0126462 0)
(-0.0482776 -0.0214969 0)
(-0.0429998 -0.0290005 0)
(-0.038224 -0.0367424 0)
(-0.0345613 -0.0471842 0)
(-0.032551 -0.0646866 0)
(-0.0298311 -0.0956213 0)
(-0.0245701 -0.136408 0)
(-0.00938815 -0.151866 0)
(-0.00356675 0.0581224 0)
(-0.0117743 0.0762146 0)
(-0.0211677 0.091758 0)
(-0.0281735 0.0988732 0)
(-0.0347115 0.0948 0)
(-0.0382796 0.0798758 0)
(-0.0410604 0.0621059 0)
(-0.0437829 0.0443913 0)
(-0.0450643 0.0269625 0)
(-0.0447279 0.0103223 0)
(-0.042361 -0.00491042 0)
(-0.0383784 -0.0175352 0)
(-0.0336503 -0.0268576 0)
(-0.0290466 -0.0340708 0)
(-0.0250439 -0.0411015 0)
(-0.022046 -0.0503403 0)
(-0.0209896 -0.0661749 0)
(-0.0193912 -0.0966081 0)
(-0.0190425 -0.143223 0)
(-0.00707168 -0.167458 0)
(-0.00190941 0.0647458 0)
(-0.00635364 0.0833736 0)
(-0.0117816 0.0978982 0)
(-0.0150751 0.103517 0)
(-0.0188422 0.0989296 0)
(-0.0215941 0.0837985 0)
(-0.0239789 0.0652019 0)
(-0.0265377 0.0464821 0)
(-0.0278984 0.0277827 0)
(-0.0278423 0.00940643 0)
(-0.0260861 -0.00776177 0)
(-0.0229664 -0.02177 0)
(-0.0194606 -0.0313026 0)
(-0.0162985 -0.0379621 0)
(-0.0137717 -0.0441376 0)
(-0.0119858 -0.0521752 0)
(-0.0124027 -0.0662971 0)
(-0.0118594 -0.0965493 0)
(-0.0153191 -0.146318 0)
(-0.00405617 -0.179704 0)
(0.000496868 0.0676302 0)
(-0.00124458 0.0866901 0)
(-0.00224512 0.0999721 0)
(-0.00260459 0.105721 0)
(-0.00321147 0.101504 0)
(-0.00455746 0.0863199 0)
(-0.00629003 0.0676589 0)
(-0.00812488 0.0483689 0)
(-0.00907643 0.0287736 0)
(-0.00902411 0.00918474 0)
(-0.0080134 -0.00929451 0)
(-0.00639416 -0.0241499 0)
(-0.00506421 -0.0337313 0)
(-0.00414592 -0.0399001 0)
(-0.00366398 -0.0453651 0)
(-0.00344067 -0.052447 0)
(-0.00571283 -0.0650804 0)
(-0.00578418 -0.0947 0)
(-0.0127466 -0.147242 0)
(-0.00240904 -0.189364 0)
(0.00179963 0.066709 0)
(0.00320223 0.0865363 0)
(0.00604325 0.0987178 0)
(0.00899057 0.104729 0)
(0.0114719 0.101227 0)
(0.0123646 0.0883842 0)
(0.0119739 0.0696847 0)
(0.0111858 0.0499344 0)
(0.0108628 0.0297024 0)
(0.0109647 0.00944836 0)
(0.011106 -0.00950325 0)
(0.0106864 -0.0243137 0)
(0.00912962 -0.0335269 0)
(0.00725772 -0.0393342 0)
(0.00538058 -0.0444253 0)
(0.00385519 -0.0508996 0)
(-0.000587973 -0.0625582 0)
(-0.00086157 -0.0913891 0)
(-0.0109808 -0.146074 0)
(-0.000431448 -0.197166 0)
(0.00300362 0.0635606 0)
(0.00671174 0.0831395 0)
(0.0122976 0.0940448 0)
(0.0180745 0.100366 0)
(0.0242251 0.0979381 0)
(0.0276948 0.0877297 0)
(0.0297208 0.0704026 0)
(0.0303307 0.0509044 0)
(0.0305439 0.0305539 0)
(0.0303737 0.0103791 0)
(0.0292498 -0.00803633 0)
(0.0263208 -0.0219117 0)
(0.0217858 -0.0305124 0)
(0.0172695 -0.0362335 0)
(0.0131851 -0.0413364 0)
(0.00993686 -0.0476036 0)
(0.00332981 -0.0587132 0)
(0.00348267 -0.0866508 0)
(-0.0105496 -0.143788 0)
(0.00102163 -0.203582 0)
(0.00376974 0.0577705 0)
(0.00903182 0.0775853 0)
(0.0160338 0.0870618 0)
(0.0238498 0.0924299 0)
(0.032461 0.0913465 0)
(0.0390736 0.0833017 0)
(0.0437905 0.0685625 0)
(0.0461366 0.0505105 0)
(0.0469575 0.0312249 0)
(0.0463432 0.0121955 0)
(0.0436549 -0.00472992 0)
(0.0383093 -0.0170553 0)
(0.0315668 -0.0251049 0)
(0.0252223 -0.0310337 0)
(0.0194462 -0.0364483 0)
(0.014841 -0.0427922 0)
(0.0062333 -0.0534438 0)
(0.00735281 -0.0805269 0)
(-0.0107233 -0.140012 0)
(0.00318 -0.208874 0)
(0.00381543 0.0509813 0)
(0.0099474 0.0705944 0)
(0.0173595 0.0787001 0)
(0.0258705 0.0824763 0)
(0.0355288 0.0816363 0)
(0.0442796 0.0754062 0)
(0.0511434 0.0634839 0)
(0.0552765 0.0480915 0)
(0.0568088 0.0310056 0)
(0.0557309 0.0143787 0)
(0.0518174 1.93523e-05 0)
(0.0454115 -0.0106331 0)
(0.0380351 -0.0183456 0)
(0.0309532 -0.0245496 0)
(0.024144 -0.0302988 0)
(0.0187053 -0.0368024 0)
(0.00837313 -0.0471538 0)
(0.0108569 -0.0734157 0)
(-0.0114956 -0.135461 0)
(0.00588595 -0.213363 0)
(0.00331163 0.0442495 0)
(0.00983401 0.0637443 0)
(0.0171247 0.0709356 0)
(0.0254017 0.0730725 0)
(0.034845 0.0715308 0)
(0.0441676 0.0661452 0)
(0.0519414 0.0565767 0)
(0.0572907 0.0441632 0)
(0.0592116 0.0301278 0)
(0.0584636 0.0167985 0)
(0.0546778 0.00522351 0)
(0.0488141 -0.00401028 0)
(0.0419373 -0.0113259 0)
(0.0348962 -0.0175681 0)
(0.0276527 -0.0234447 0)
(0.0218818 -0.0300021 0)
(0.00994658 -0.0401511 0)
(0.0141233 -0.0657469 0)
(-0.0121686 -0.129844 0)
(0.00996282 -0.217625 0)
(0.00214113 0.0381936 0)
(0.00809875 0.0561836 0)
(0.0153652 0.0624314 0)
(0.0233966 0.0636925 0)
(0.0323416 0.0617465 0)
(0.0413413 0.0570103 0)
(0.0492205 0.0494535 0)
(0.0548879 0.0398186 0)
(0.058009 0.0293841 0)
(0.0577663 0.0188353 0)
(0.0549932 0.00955639 0)
(0.0503338 0.00177214 0)
(0.0443925 -0.00476265 0)
(0.0378698 -0.0106368 0)
(0.0305282 -0.0162677 0)
(0.0247236 -0.0225905 0)
(0.0110249 -0.0327931 0)
(0.0175885 -0.0585436 0)
(-0.0125911 -0.125614 0)
(0.0150325 -0.222459 0)
(0.00100756 0.0341079 0)
(0.0065202 0.0509621 0)
(0.0133136 0.056297 0)
(0.0212276 0.0559711 0)
(0.0298053 0.0532315 0)
(0.0383165 0.0488134 0)
(0.0459223 0.0427602 0)
(0.0516871 0.0354128 0)
(0.055177 0.027557 0)
(0.0560499 0.0197638 0)
(0.0546384 0.0126345 0)
(0.051338 0.00639789 0)
(0.0464743 0.000972077 0)
(0.0406752 -0.00411385 0)
(0.0333671 -0.00904191 0)
(0.0275906 -0.0148846 0)
(0.0123579 -0.0254426 0)
(0.0220652 -0.0521058 0)
(-0.0127808 -0.123544 0)
(0.0213234 -0.227375 0)
(-0.00243884 0.030222 0)
(0.000513206 0.0417175 0)
(0.00968975 0.0458348 0)
(0.0182573 0.0461373 0)
(0.0270464 0.0443277 0)
(0.035501 0.0410603 0)
(0.0430558 0.0366079 0)
(0.0490737 0.0312558 0)
(0.0530809 0.0255212 0)
(0.0552387 0.0196528 0)
(0.0551203 0.0144807 0)
(0.0530572 0.00983025 0)
(0.0492638 0.00573672 0)
(0.0444119 0.00176176 0)
(0.0372369 -0.00218857 0)
(0.0319042 -0.00744746 0)
(0.0162036 -0.0191047 0)
(0.0286398 -0.0472465 0)
(-0.0126583 -0.121466 0)
(0.0297368 -0.227595 0)
(-0.00576113 0.0446053 0)
(-0.00399063 0.0459294 0)
(0.00451046 0.0445983 0)
(0.012784 0.0414579 0)
(0.0224773 0.0380299 0)
(0.0320871 0.0343587 0)
(0.0408688 0.0304999 0)
(0.0482619 0.0264985 0)
(0.0537932 0.0226194 0)
(0.0572678 0.0190069 0)
(0.0586569 0.0157148 0)
(0.0586547 0.0128271 0)
(0.0565307 0.0105151 0)
(0.0539015 0.00803389 0)
(0.0482234 0.00590359 0)
(0.0447476 0.00130068 0)
(0.0332176 -0.0116425 0)
(0.0447001 -0.042247 0)
(-0.00213555 -0.110041 0)
(0.0458488 -0.205903 0)
(-0.00473323 0.0190618 0)
(-0.0116461 0.0102599 0)
(0.00461144 0.0151169 0)
(0.0177124 0.0171513 0)
(0.0311884 0.0177311 0)
(0.0439764 0.0173064 0)
(0.0552874 0.0163582 0)
(0.0653799 0.0150639 0)
(0.0735757 0.0136729 0)
(0.0808728 0.0122349 0)
(0.0858148 0.0109618 0)
(0.0909299 0.00972741 0)
(0.0932537 0.00867116 0)
(0.0967753 0.00752629 0)
(0.0970305 0.00554325 0)
(0.0991081 0.000964599 0)
(0.0944786 -0.00773703 0)
(0.0973282 -0.0318398 0)
(0.0490987 -0.0780809 0)
(0.0843053 -0.154064 0)
(0.0508251 0.0993344 0)
(0.0576382 0.0613207 0)
(0.0880575 0.0381391 0)
(0.109771 0.0274616 0)
(0.127277 0.0217569 0)
(0.143282 0.0180412 0)
(0.157624 0.0154698 0)
(0.171532 0.0133522 0)
(0.183381 0.0119369 0)
(0.195055 0.0104057 0)
(0.20431 0.00969711 0)
(0.213784 0.00826698 0)
(0.220793 0.00816364 0)
(0.227983 0.00634774 0)
(0.232706 0.00668751 0)
(0.236477 0.0030904 0)
(0.234165 0.000279714 0)
(0.224295 -0.00675255 0)
(0.178054 -0.0201432 0)
(0.168223 -0.116801 0)
)
;

boundaryField
{
    movingWall
    {
        type            fixedValue;
        value           uniform (1 0 0);
    }
    fixedWalls
    {
        type            noSlip;
    }
    frontAndBack
    {
        type            empty;
    }
}


// ************************************************************************* //
