/*--------------------------------*- C++ -*----------------------------------*\
| =========                 |                                                 |
| \\      /  F ield         | OpenFOAM: The Open Source CFD Toolbox           |
|  \\    /   O peration     | Version:  4.1                                   |
|   \\  /    A nd           | Web:      www.OpenFOAM.org                      |
|    \\/     M anipulation  |                                                 |
\*---------------------------------------------------------------------------*/
FoamFile
{
    version     2.0;
    format      ascii;
    class       volScalarField;
    location    "8.5";
    object      epsilon;
}
// * * * * * * * * * * * * * * * * * * * * * * * * * * * * * * * * * * * * * //

dimensions      [0 2 -3 0 0 0 0];

internalField   nonuniform List<scalar> 
400
(
0.000357124
0.00114277
0.00346242
0.00687619
0.00993106
0.0120392
0.0132674
0.0138259
0.0139923
0.0137969
0.0131525
0.0123685
0.0113476
0.0104012
0.00946163
0.00863693
0.00794773
0.00726749
0.0056973
0.00438655
0.000822828
0.00200493
0.0041025
0.00551729
0.00590758
0.00548509
0.00472308
0.00396201
0.00330536
0.00282759
0.00259074
0.00251994
0.00272715
0.00307601
0.00364717
0.00454499
0.00593734
0.00776645
0.00977899
0.0105837
0.00191191
0.00284555
0.00355167
0.00357105
0.00276138
0.00211932
0.00157534
0.00127151
0.00110192
0.00102859
0.00100968
0.00105687
0.00120511
0.00144149
0.00191019
0.00272469
0.0041838
0.00676306
0.0113253
0.0167971
0.00281481
0.00274163
0.00278542
0.00213455
0.0013556
0.000974911
0.000705778
0.000578989
0.000493612
0.000452571
0.000435877
0.000434601
0.000493082
0.000602126
0.000845734
0.00136571
0.00253565
0.00517285
0.0114003
0.0211541
0.00345829
0.00248442
0.00210539
0.00126155
0.000756374
0.000521362
0.000370401
0.00029704
0.000241582
0.000214962
0.000202668
0.000200388
0.000226128
0.000282943
0.000415374
0.000738956
0.00162099
0.00392564
0.0105695
0.0245588
0.00410102
0.00217328
0.00155454
0.000804191
0.000468151
0.000311032
0.000214469
0.000166614
0.000131399
0.000114902
0.00010776
0.000106605
0.000122344
0.000154643
0.00022969
0.000423938
0.00105657
0.00310341
0.00991986
0.0272097
0.00478243
0.00188133
0.00117569
0.000568128
0.000321296
0.000206335
0.000138121
0.000104013
8.08737e-05
7.02149e-05
6.58662e-05
6.53142e-05
7.60525e-05
9.75331e-05
0.00014461
0.000259713
0.000685072
0.00239215
0.00921045
0.0294422
0.00558574
0.00167222
0.000922988
0.000435948
0.000242834
0.000151966
9.88396e-05
7.21963e-05
5.55421e-05
4.78921e-05
4.50811e-05
4.53013e-05
5.33763e-05
6.98125e-05
0.00010406
0.000179389
0.000484786
0.00194133
0.00869058
0.0313295
0.00634401
0.00151358
0.000769152
0.000367797
0.000205046
0.000125548
7.90666e-05
5.57891e-05
4.25667e-05
3.64829e-05
3.43462e-05
3.51057e-05
4.12618e-05
5.40937e-05
8.11064e-05
0.000135343
0.000340381
0.00153825
0.00827213
0.0330821
0.00725159
0.00146157
0.000671546
0.000326964
0.000184115
0.000110932
6.81197e-05
4.70375e-05
3.60436e-05
3.09932e-05
2.92714e-05
3.0406e-05
3.54915e-05
4.63478e-05
6.86589e-05
0.000115071
0.000271706
0.00132781
0.00799668
0.0347505
0.00791898
0.00154293
0.000627895
0.00031491
0.00018431
0.000111307
6.82495e-05
4.61747e-05
3.50039e-05
2.97058e-05
2.78163e-05
2.88819e-05
3.32281e-05
4.28229e-05
6.25832e-05
0.000105566
0.000238189
0.00118862
0.00784572
0.0365102
0.00853465
0.0017866
0.000643429
0.000320735
0.000189687
0.000115784
7.15461e-05
4.82805e-05
3.64421e-05
3.07136e-05
2.88142e-05
2.96393e-05
3.29996e-05
4.17877e-05
6.05671e-05
0.000102341
0.000229823
0.00114192
0.00778001
0.0384557
0.00864739
0.00219333
0.000707155
0.000341262
0.000203343
0.000126457
7.98542e-05
5.42734e-05
4.09178e-05
3.42475e-05
3.23104e-05
3.33352e-05
3.67795e-05
4.52229e-05
6.27651e-05
0.000103813
0.000230021
0.00115156
0.00794205
0.0408126
0.00847993
0.0027272
0.000867959
0.000390941
0.000229688
0.000147511
9.7065e-05
6.7287e-05
5.0917e-05
4.24897e-05
4.01155e-05
4.1408e-05
4.52624e-05
5.45257e-05
7.33511e-05
0.000120521
0.000266173
0.00130925
0.00913139
0.0438036
0.00789232
0.00319467
0.00110458
0.000491078
0.000278626
0.000178413
0.00012143
8.84097e-05
6.94974e-05
5.959e-05
5.64296e-05
5.79794e-05
6.23734e-05
7.29711e-05
9.48703e-05
0.00015503
0.000340334
0.00160776
0.0106383
0.048149
0.00686668
0.00349161
0.00153285
0.000722036
0.00038957
0.000242565
0.000166103
0.000123502
9.92004e-05
8.7053e-05
8.31078e-05
8.51284e-05
9.07912e-05
0.000105387
0.000138835
0.000236894
0.000522869
0.00228829
0.0134832
0.0542709
0.00491589
0.00329493
0.00178135
0.000977631
0.000584712
0.000380232
0.000266479
0.000202607
0.000164817
0.000146364
0.000140138
0.000143415
0.000155442
0.000193249
0.000277688
0.000502776
0.00108034
0.00400318
0.0186655
0.0635473
0.00364943
0.00284801
0.00214415
0.00151108
0.00109084
0.000827463
0.000657572
0.000571487
0.000518157
0.000520738
0.000535362
0.000584087
0.000648764
0.000830108
0.00113724
0.00191882
0.00358296
0.00963463
0.0306308
0.0789651
0.00438163
0.00598822
0.00734436
0.00751411
0.00733664
0.00723697
0.00720859
0.00735586
0.00759637
0.00808801
0.00847545
0.00928469
0.00994588
0.0111607
0.0124256
0.0165109
0.0225706
0.0374684
0.0702668
0.110325
0.0453559
0.0894095
0.121493
0.133539
0.13565
0.135571
0.135006
0.135192
0.135455
0.13643
0.137303
0.139451
0.14121
0.144341
0.148323
0.151746
0.155692
0.160622
0.176922
0.15242
)
;

boundaryField
{
    movingWall
    {
        Cmu             0.09;
        kappa           0.41;
        E               9.8;
        type            epsilonWallFunction;
        value           nonuniform List<scalar> 
20
(
0.0453559
0.0894095
0.121493
0.133539
0.13565
0.135571
0.135006
0.135192
0.135455
0.13643
0.137303
0.139451
0.14121
0.144341
0.148323
0.151746
0.155692
0.160622
0.176922
0.15242
)
;
    }
    fixedWalls
    {
        Cmu             0.09;
        kappa           0.41;
        E               9.8;
        type            epsilonWallFunction;
        value           nonuniform List<scalar> 
60
(
0.000357124
0.000822828
0.00191191
0.00281481
0.00345829
0.00410102
0.00478243
0.00558574
0.00634401
0.00725159
0.00791898
0.00853465
0.00864739
0.00847993
0.00789232
0.00686668
0.00491589
0.00364943
0.00438163
0.0453559
0.00438655
0.0105837
0.0167971
0.0211541
0.0245588
0.0272097
0.0294422
0.0313295
0.0330821
0.0347505
0.0365102
0.0384557
0.0408126
0.0438036
0.048149
0.0542709
0.0635473
0.0789651
0.110325
0.15242
0.000357124
0.00114277
0.00346242
0.00687619
0.00993106
0.0120392
0.0132674
0.0138259
0.0139923
0.0137969
0.0131525
0.0123685
0.0113476
0.0104012
0.00946163
0.00863693
0.00794773
0.00726749
0.0056973
0.00438655
)
;
    }
    frontAndBack
    {
        type            empty;
    }
}


// ************************************************************************* //
