/*--------------------------------*- C++ -*----------------------------------*\
| =========                 |                                                 |
| \\      /  F ield         | OpenFOAM: The Open Source CFD Toolbox           |
|  \\    /   O peration     | Version:  4.1                                   |
|   \\  /    A nd           | Web:      www.OpenFOAM.org                      |
|    \\/     M anipulation  |                                                 |
\*---------------------------------------------------------------------------*/
FoamFile
{
    version     2.0;
    format      ascii;
    class       volScalarField;
    location    "8.5";
    object      k;
}
// * * * * * * * * * * * * * * * * * * * * * * * * * * * * * * * * * * * * * //

dimensions      [0 2 -2 0 0 0 0];

internalField   nonuniform List<scalar> 
400
(
0.000170595
0.000370459
0.000775691
0.00122555
0.00156589
0.0017803
0.00189938
0.0019523
0.00196792
0.00194952
0.00188832
0.0018125
0.00171132
0.0016148
0.00151602
0.0014266
0.00134966
0.00127152
0.00108105
0.000908102
0.000297592
0.00063643
0.00099024
0.00115934
0.00121014
0.0011027
0.00100493
0.000902876
0.000837039
0.000798929
0.000784315
0.000792938
0.000855696
0.000930354
0.00105403
0.00120506
0.00139353
0.0015906
0.00171096
0.0016336
0.000522092
0.000854973
0.000948511
0.000942095
0.000728727
0.000625487
0.000526961
0.000476772
0.000442224
0.000425695
0.000419514
0.000419515
0.000451327
0.000498254
0.000596901
0.000757668
0.00101017
0.0013895
0.00189171
0.00222268
0.000675673
0.000851816
0.00084668
0.000658177
0.000478275
0.0003965
0.000327406
0.000293664
0.000259761
0.000242896
0.000231984
0.000228372
0.000234448
0.000260824
0.000314503
0.000432393
0.000671541
0.0010984
0.00186663
0.00259209
0.000775084
0.000832444
0.000708864
0.000465157
0.000339065
0.000276531
0.000226478
0.000202171
0.000180905
0.000171006
0.000164633
0.00016253
0.000163596
0.000176383
0.000203797
0.000275739
0.000466837
0.000878236
0.00173561
0.00286322
0.000868349
0.000787418
0.000577833
0.000355276
0.000258214
0.000209654
0.000175802
0.000160189
0.000148853
0.000143361
0.000139933
0.000138752
0.000140379
0.000147947
0.000163179
0.000201256
0.000338153
0.000725405
0.00165335
0.0030657
0.000962048
0.000725506
0.000482795
0.000290539
0.00021148
0.000173272
0.0001509
0.000140522
0.000133204
0.000128553
0.000125823
0.000124951
0.00012815
0.000135403
0.00014704
0.000167027
0.000256559
0.000593454
0.00156031
0.00323116
0.00106695
0.000657168
0.000415768
0.000250974
0.000186172
0.00015518
0.000137359
0.000128462
0.000121104
0.0001153
0.000111721
0.000110458
0.000113745
0.000122729
0.000137775
0.000150937
0.000211906
0.000508109
0.00150547
0.00336778
0.00116145
0.000613096
0.000374903
0.00023108
0.000173265
0.000145517
0.000129009
0.000119838
0.000111687
0.000105021
0.00010079
9.91255e-05
0.000101758
0.000110049
0.000125968
0.000140152
0.000178672
0.000428548
0.00145787
0.00349221
0.00126972
0.000574119
0.000348116
0.000217747
0.000168388
0.000141983
0.000125324
0.000114697
0.000105701
9.86459e-05
9.41172e-05
9.22192e-05
9.41805e-05
0.000101443
0.0001163
0.000133522
0.000162316
0.000385241
0.00143439
0.00360863
0.00134646
0.000577366
0.000336367
0.000217447
0.000169178
0.00014248
0.000123884
0.000111414
0.000102179
9.52743e-05
9.08516e-05
8.93631e-05
9.08701e-05
9.69088e-05
0.000109629
0.000127593
0.000151227
0.000348823
0.00142194
0.00372942
0.00141537
0.000597658
0.000339529
0.000220524
0.00017211
0.000144554
0.000124834
0.000111378
0.000101278
9.42965e-05
8.97658e-05
8.88071e-05
9.00109e-05
9.52721e-05
0.000106911
0.00012497
0.000147555
0.000333634
0.00141739
0.00386073
0.00142778
0.000639202
0.000352216
0.000228762
0.000178021
0.000148747
0.000127619
0.000112959
0.000102581
9.58351e-05
9.1198e-05
9.05263e-05
9.12932e-05
9.54824e-05
0.000106319
0.000124047
0.000146294
0.000329019
0.00143698
0.00401689
0.00140928
0.000713593
0.000384776
0.0002474
0.000189436
0.000156918
0.000133583
0.000117349
0.000106412
0.000100241
9.56186e-05
9.5652e-05
9.67461e-05
0.000101647
0.000111952
0.000126504
0.00014871
0.000338986
0.00155132
0.00421082
0.00134338
0.000778739
0.000428253
0.000275173
0.000206335
0.000168559
0.000143384
0.000126556
0.000114723
0.000109419
0.000105732
0.000106411
0.000108403
0.000114669
0.000123057
0.000135942
0.00016181
0.000380933
0.00171286
0.00448488
0.00122431
0.000847879
0.000516188
0.000332099
0.000240809
0.000191804
0.000161125
0.000141774
0.00012902
0.000123676
0.000121747
0.000122843
0.00012504
0.000130667
0.000136134
0.000148718
0.000182944
0.000462343
0.00199856
0.00485741
0.000979777
0.000829108
0.000578957
0.00041273
0.000304248
0.000240012
0.000198749
0.000173088
0.000154691
0.000146343
0.000140132
0.00014018
0.000141646
0.000146132
0.000155098
0.000179801
0.000253721
0.000668882
0.0024766
0.00539624
0.000803299
0.000776396
0.000664804
0.000529033
0.000425871
0.000349943
0.00029218
0.000256291
0.000227586
0.000214746
0.000202337
0.000202604
0.000205669
0.000221278
0.0002561
0.000349717
0.000555865
0.00125054
0.00341782
0.0062371
0.000907416
0.00102638
0.001118
0.00108859
0.00102088
0.000978414
0.000937287
0.000940873
0.000953708
0.000990691
0.00103066
0.00111916
0.0011928
0.00134334
0.00148136
0.00184931
0.00234374
0.00348344
0.00592147
0.00779486
0.00430974
0.00677563
0.00831236
0.00885309
0.00894609
0.00894261
0.0089177
0.00892592
0.00893749
0.00898036
0.00901864
0.00911249
0.00918898
0.0093243
0.00949501
0.00964052
0.00980695
0.0100129
0.0106794
0.0096691
)
;

boundaryField
{
    movingWall
    {
        type            kqRWallFunction;
        value           nonuniform List<scalar> 
20
(
0.00430974
0.00677563
0.00831236
0.00885309
0.00894609
0.00894261
0.0089177
0.00892592
0.00893749
0.00898036
0.00901864
0.00911249
0.00918898
0.0093243
0.00949501
0.00964052
0.00980695
0.0100129
0.0106794
0.0096691
)
;
    }
    fixedWalls
    {
        type            kqRWallFunction;
        value           nonuniform List<scalar> 
60
(
0.000170595
0.000297592
0.000522092
0.000675673
0.000775084
0.000868349
0.000962048
0.00106695
0.00116145
0.00126972
0.00134646
0.00141537
0.00142778
0.00140928
0.00134338
0.00122431
0.000979777
0.000803299
0.000907416
0.00430974
0.000908102
0.0016336
0.00222268
0.00259209
0.00286322
0.0030657
0.00323116
0.00336778
0.00349221
0.00360863
0.00372942
0.00386073
0.00401689
0.00421082
0.00448488
0.00485741
0.00539624
0.0062371
0.00779486
0.0096691
0.000170595
0.000370459
0.000775691
0.00122555
0.00156589
0.0017803
0.00189938
0.0019523
0.00196792
0.00194952
0.00188832
0.0018125
0.00171132
0.0016148
0.00151602
0.0014266
0.00134966
0.00127152
0.00108105
0.000908102
)
;
    }
    frontAndBack
    {
        type            empty;
    }
}


// ************************************************************************* //
