/*--------------------------------*- C++ -*----------------------------------*\
| =========                 |                                                 |
| \\      /  F ield         | OpenFOAM: The Open Source CFD Toolbox           |
|  \\    /   O peration     | Version:  4.1                                   |
|   \\  /    A nd           | Web:      www.OpenFOAM.org                      |
|    \\/     M anipulation  |                                                 |
\*---------------------------------------------------------------------------*/
FoamFile
{
    version     2.0;
    format      ascii;
    class       volScalarField;
    location    "8.5";
    object      nut;
}
// * * * * * * * * * * * * * * * * * * * * * * * * * * * * * * * * * * * * * //

dimensions      [0 2 -1 0 0 0 0];

internalField   nonuniform List<scalar> 
400
(
7.33426e-06
1.08085e-05
1.56402e-05
1.96588e-05
2.22213e-05
2.36935e-05
2.44726e-05
2.48109e-05
2.49097e-05
2.47923e-05
2.43998e-05
2.39045e-05
2.32274e-05
2.25628e-05
2.18619e-05
2.12074e-05
2.06277e-05
2.00217e-05
1.84613e-05
1.69196e-05
9.68668e-06
1.81821e-05
2.15117e-05
2.1925e-05
2.23102e-05
1.99512e-05
1.92438e-05
1.85175e-05
1.90772e-05
2.03162e-05
2.13697e-05
2.24559e-05
2.41642e-05
2.53251e-05
2.74154e-05
2.87559e-05
2.94364e-05
2.93186e-05
2.69418e-05
2.26933e-05
1.28312e-05
2.31196e-05
2.27979e-05
2.23685e-05
1.7308e-05
1.66143e-05
1.58644e-05
1.60896e-05
1.59727e-05
1.58561e-05
1.56874e-05
1.4987e-05
1.52124e-05
1.55001e-05
1.67869e-05
1.8962e-05
2.19513e-05
2.56931e-05
2.84383e-05
2.64705e-05
1.45971e-05
2.38191e-05
2.31628e-05
1.82651e-05
1.51868e-05
1.45133e-05
1.36694e-05
1.34052e-05
1.23028e-05
1.17327e-05
1.1112e-05
1.08004e-05
1.00327e-05
1.01684e-05
1.05259e-05
1.23209e-05
1.60066e-05
2.09909e-05
2.7507e-05
2.85855e-05
1.56343e-05
2.51031e-05
2.14801e-05
1.5436e-05
1.36796e-05
1.32005e-05
1.2463e-05
1.23842e-05
1.2192e-05
1.22434e-05
1.20363e-05
1.18641e-05
1.0652e-05
9.89593e-06
8.99906e-06
9.26017e-06
1.21002e-05
1.76829e-05
2.56504e-05
3.00432e-05
1.65478e-05
2.56766e-05
1.93306e-05
1.41259e-05
1.28179e-05
1.27187e-05
1.29696e-05
1.3861e-05
1.51763e-05
1.60982e-05
1.63542e-05
1.62533e-05
1.44965e-05
1.27386e-05
1.04335e-05
8.59879e-06
9.74027e-06
1.52603e-05
2.48008e-05
3.1087e-05
1.74176e-05
2.51802e-05
1.78433e-05
1.33723e-05
1.25279e-05
1.30956e-05
1.48374e-05
1.7086e-05
1.97455e-05
2.11826e-05
2.16323e-05
2.15138e-05
1.94342e-05
1.69179e-05
1.3456e-05
9.66767e-06
8.64727e-06
1.32504e-05
2.37893e-05
3.19146e-05
1.83421e-05
2.32435e-05
1.68557e-05
1.30036e-05
1.28458e-05
1.42617e-05
1.71802e-05
2.05719e-05
2.3765e-05
2.49825e-05
2.49181e-05
2.42398e-05
2.18152e-05
1.9418e-05
1.64172e-05
1.14298e-05
8.33637e-06
1.1969e-05
2.34715e-05
3.25819e-05
1.91371e-05
2.23509e-05
1.64463e-05
1.30665e-05
1.31769e-05
1.51796e-05
1.89448e-05
2.31679e-05
2.63741e-05
2.72086e-05
2.66194e-05
2.51904e-05
2.25854e-05
2.01497e-05
1.76079e-05
1.30619e-05
8.44096e-06
1.07452e-05
2.31238e-05
3.3178e-05
2.0009e-05
2.02968e-05
1.62411e-05
1.3051e-05
1.38603e-05
1.63552e-05
2.07509e-05
2.5171e-05
2.7898e-05
2.82576e-05
2.72356e-05
2.51725e-05
2.24927e-05
1.99827e-05
1.773e-05
1.39439e-05
8.72706e-06
1.00594e-05
2.31562e-05
3.37261e-05
2.06045e-05
1.94446e-05
1.62175e-05
1.35134e-05
1.39759e-05
1.64146e-05
2.02383e-05
2.41945e-05
2.68442e-05
2.75013e-05
2.67059e-05
2.48848e-05
2.23656e-05
1.97375e-05
1.72835e-05
1.38795e-05
8.64136e-06
9.2132e-06
2.3194e-05
3.42855e-05
2.1125e-05
1.79937e-05
1.61248e-05
1.36461e-05
1.40546e-05
1.62426e-05
1.96031e-05
2.31244e-05
2.53318e-05
2.60557e-05
2.51686e-05
2.39481e-05
2.20965e-05
1.9549e-05
1.69843e-05
1.37342e-05
8.52623e-06
8.77301e-06
2.32402e-05
3.48836e-05
2.12169e-05
1.67655e-05
1.57887e-05
1.38014e-05
1.40268e-05
1.5747e-05
1.83558e-05
2.11592e-05
2.31455e-05
2.41359e-05
2.3167e-05
2.21253e-05
2.03946e-05
1.81439e-05
1.62086e-05
1.33403e-05
8.37396e-06
8.46054e-06
2.33999e-05
3.55818e-05
2.10787e-05
1.68045e-05
1.53518e-05
1.40906e-05
1.40615e-05
1.50232e-05
1.65455e-05
1.84191e-05
2.00153e-05
2.12839e-05
2.05123e-05
1.9886e-05
1.86111e-05
1.7054e-05
1.5378e-05
1.19505e-05
7.47751e-06
7.8992e-06
2.37196e-05
3.64307e-05
2.05795e-05
1.70844e-05
1.49433e-05
1.38773e-05
1.3752e-05
1.43323e-05
1.52377e-05
1.63046e-05
1.70441e-05
1.80824e-05
1.783e-05
1.75767e-05
1.69561e-05
1.62174e-05
1.43657e-05
1.07283e-05
6.92387e-06
8.12308e-06
2.48207e-05
3.75974e-05
1.96461e-05
1.85304e-05
1.56444e-05
1.37474e-05
1.33968e-05
1.365e-05
1.40667e-05
1.46475e-05
1.51023e-05
1.58135e-05
1.60516e-05
1.59541e-05
1.54988e-05
1.45809e-05
1.20138e-05
8.4026e-06
5.76084e-06
8.40737e-06
2.66614e-05
3.91278e-05
1.7575e-05
1.87767e-05
1.6935e-05
1.56819e-05
1.4248e-05
1.36351e-05
1.3341e-05
1.33083e-05
1.30669e-05
1.31689e-05
1.26114e-05
1.23316e-05
1.16167e-05
9.94525e-06
7.79648e-06
5.78696e-06
5.36283e-06
1.00586e-05
2.95744e-05
4.12408e-05
1.59137e-05
1.90488e-05
1.85513e-05
1.66695e-05
1.49636e-05
1.33195e-05
1.16842e-05
1.03443e-05
8.99648e-06
7.97029e-06
6.8825e-06
6.32498e-06
5.86807e-06
5.30865e-06
5.1905e-06
5.73644e-06
7.76138e-06
1.46084e-05
3.43228e-05
4.43377e-05
1.6913e-05
1.58328e-05
1.53168e-05
1.41937e-05
1.27848e-05
1.1905e-05
1.09682e-05
1.08311e-05
1.07762e-05
1.09214e-05
1.128e-05
1.21411e-05
1.28746e-05
1.45519e-05
1.58946e-05
1.86419e-05
2.19038e-05
2.91469e-05
4.49108e-05
4.95661e-05
3.68563e-05
4.62123e-05
5.11847e-05
5.28231e-05
5.30992e-05
5.30888e-05
5.30148e-05
5.30393e-05
5.30737e-05
5.32012e-05
5.33145e-05
5.35914e-05
5.38159e-05
5.42108e-05
5.47047e-05
5.51223e-05
5.55961e-05
5.61769e-05
5.80166e-05
5.52043e-05
)
;

boundaryField
{
    movingWall
    {
        type            nutkWallFunction;
        Cmu             0.09;
        kappa           0.41;
        E               9.8;
        value           nonuniform List<scalar> 
20
(
0
0
6.48443e-07
9.1776e-07
9.63117e-07
9.61421e-07
9.49301e-07
9.53301e-07
9.58931e-07
9.79762e-07
9.98311e-07
1.04359e-06
1.0803e-06
1.14482e-06
1.22544e-06
1.29351e-06
1.37064e-06
1.46505e-06
1.76312e-06
1.30681e-06
)
;
    }
    fixedWalls
    {
        type            nutkWallFunction;
        Cmu             0.09;
        kappa           0.41;
        E               9.8;
        value           nonuniform List<scalar> 
60
(
0
0
0
0
0
0
0
0
0
0
0
0
0
0
0
0
0
0
0
0
0
0
0
0
0
0
0
0
0
0
0
0
0
0
0
0
0
0
3.81056e-07
1.30681e-06
0
0
0
0
0
0
0
0
0
0
0
0
0
0
0
0
0
0
0
0
)
;
    }
    frontAndBack
    {
        type            empty;
    }
}


// ************************************************************************* //
