/*--------------------------------*- C++ -*----------------------------------*\
| =========                 |                                                 |
| \\      /  F ield         | OpenFOAM: The Open Source CFD Toolbox           |
|  \\    /   O peration     | Version:  4.1                                   |
|   \\  /    A nd           | Web:      www.OpenFOAM.org                      |
|    \\/     M anipulation  |                                                 |
\*---------------------------------------------------------------------------*/
FoamFile
{
    version     2.0;
    format      ascii;
    class       volScalarField;
    location    "8.5";
    object      p;
}
// * * * * * * * * * * * * * * * * * * * * * * * * * * * * * * * * * * * * * //

dimensions      [0 2 -2 0 0 0 0];

internalField   nonuniform List<scalar> 
400
(
7.54382e-08
-0.00011704
-0.00030332
-0.000958602
-0.00232608
-0.00432138
-0.00657515
-0.00870119
-0.0104225
-0.0116026
-0.0121237
-0.0118778
-0.0107826
-0.00877113
-0.00581158
-0.00202365
0.0022374
0.00615066
0.00866866
0.00940435
0.000176772
-2.19886e-05
-0.000462868
-0.0014896
-0.00318804
-0.00535353
-0.0076154
-0.00966543
-0.0113338
-0.0124663
-0.012967
-0.0127801
-0.011854
-0.0100822
-0.00742932
-0.00393279
0.000151568
0.00419265
0.00707724
0.00824732
0.000124029
-0.000329585
-0.00124591
-0.00280993
-0.00494969
-0.00731155
-0.00955855
-0.0115267
-0.0130953
-0.0141059
-0.0145355
-0.0143601
-0.0135497
-0.012057
-0.0098327
-0.00685941
-0.00320917
0.000774874
0.00404044
0.00567007
-0.000549977
-0.00127697
-0.00269264
-0.00479786
-0.00728711
-0.0097416
-0.011906
-0.0136425
-0.014883
-0.0156542
-0.0159647
-0.0157963
-0.0151239
-0.0139207
-0.0121541
-0.00978686
-0.00678696
-0.00319824
0.000134506
0.00193859
-0.00196997
-0.00291314
-0.00468352
-0.0071179
-0.00970003
-0.0120108
-0.0138938
-0.015324
-0.0163173
-0.016917
-0.0171369
-0.0169757
-0.0164241
-0.0154655
-0.0140788
-0.0122372
-0.00989951
-0.00695213
-0.00388082
-0.0021201
-0.00398671
-0.00499888
-0.00689592
-0.00937256
-0.0118089
-0.013847
-0.0154284
-0.0166005
-0.0174179
-0.0179115
-0.0180914
-0.0179597
-0.0175109
-0.0167384
-0.0156329
-0.014186
-0.0124059
-0.010113
-0.00758418
-0.00592028
-0.00615692
-0.00714651
-0.00898979
-0.0113203
-0.0134975
-0.0152476
-0.0165753
-0.0175666
-0.0182685
-0.0187014
-0.0188697
-0.0187735
-0.0184086
-0.0177758
-0.0168783
-0.0157079
-0.0143327
-0.012582
-0.0106273
-0.00914411
-0.00809585
-0.00899911
-0.0107033
-0.0128345
-0.0147506
-0.0162586
-0.0174039
-0.018274
-0.0189001
-0.0192947
-0.0194595
-0.0193942
-0.0190956
-0.0185661
-0.017822
-0.0168381
-0.0157462
-0.014383
-0.0129446
-0.0116503
-0.00952955
-0.0103644
-0.0119169
-0.0138711
-0.0155849
-0.016924
-0.0179524
-0.018746
-0.0193238
-0.0196932
-0.0198556
-0.0198111
-0.0195595
-0.0190984
-0.0184631
-0.0175864
-0.0167045
-0.0155741
-0.0145098
-0.0134119
-0.0103807
-0.0111315
-0.0125761
-0.0144154
-0.0160091
-0.0172619
-0.0182338
-0.0189889
-0.0195411
-0.0198967
-0.020057
-0.0200225
-0.0197979
-0.019369
-0.0188051
-0.0179569
-0.0172394
-0.0161649
-0.0154302
-0.01442
-0.0106048
-0.0113139
-0.0126909
-0.0144709
-0.0160321
-0.0172819
-0.0182535
-0.0190042
-0.0195525
-0.0199055
-0.0200652
-0.02003
-0.0198114
-0.0193836
-0.0188406
-0.0179729
-0.0173405
-0.0161821
-0.0157635
-0.0146667
-0.0102246
-0.010923
-0.0122734
-0.0140479
-0.0156615
-0.0169757
-0.0180002
-0.0187849
-0.0193552
-0.0197197
-0.0198825
-0.0198383
-0.0196025
-0.019151
-0.0185569
-0.0176711
-0.0169457
-0.0157214
-0.0155188
-0.0141529
-0.00937442
-0.0100706
-0.0114052
-0.0131694
-0.0149007
-0.0163362
-0.0174655
-0.0183265
-0.0189489
-0.0193415
-0.0195122
-0.0194508
-0.0191762
-0.0186631
-0.0179689
-0.0170112
-0.0160892
-0.0148217
-0.0146487
-0.012975
-0.00821328
-0.00886382
-0.0101527
-0.0118786
-0.0137285
-0.0153306
-0.0166203
-0.0176093
-0.0183229
-0.0187672
-0.018955
-0.0188712
-0.0185348
-0.0179211
-0.0170785
-0.0159643
-0.0148034
-0.0134593
-0.0132172
-0.0113283
-0.00696758
-0.00749144
-0.00863127
-0.0102587
-0.0121575
-0.0139399
-0.0154418
-0.0166175
-0.0174715
-0.0179993
-0.018217
-0.0181081
-0.0176876
-0.016934
-0.015891
-0.0145402
-0.0131219
-0.0116284
-0.0112941
-0.00926124
-0.00584273
-0.00608246
-0.00694376
-0.00837078
-0.0102227
-0.012155
-0.0139037
-0.0153196
-0.0163687
-0.0170232
-0.0172926
-0.0171619
-0.0166495
-0.0157331
-0.014452
-0.0128141
-0.0110939
-0.00933577
-0.00883673
-0.00641078
-0.00507047
-0.0049106
-0.00531807
-0.00639055
-0.00808048
-0.0100758
-0.0120531
-0.0137359
-0.0150272
-0.015859
-0.0162309
-0.0161255
-0.0155428
-0.0144669
-0.0129368
-0.010976
-0.0088367
-0.00657815
-0.00544205
-0.00120911
-0.00456184
-0.00392893
-0.00383042
-0.00447827
-0.00595335
-0.00795662
-0.0100977
-0.0119946
-0.0135017
-0.014522
-0.0150204
-0.0149718
-0.0143806
-0.0132315
-0.0115156
-0.00922418
-0.00647936
-0.0032339
-0.000102992
0.00913966
-0.00572461
-0.00376823
-0.00296201
-0.00315395
-0.00442601
-0.00642968
-0.0086747
-0.0107509
-0.0124226
-0.0135944
-0.0142045
-0.0142476
-0.0136767
-0.01247
-0.0105478
-0.00780444
-0.00411538
0.00100105
0.00793209
0.0251031
-0.00089479
0.000752687
-0.000202815
-0.001516
-0.00323755
-0.00541494
-0.00776418
-0.00999215
-0.0117882
-0.0130522
-0.0136975
-0.0137304
-0.0130882
-0.0117764
-0.00963349
-0.00650006
-0.00143051
0.00628653
0.0177929
0.0367374
)
;

boundaryField
{
    movingWall
    {
        type            zeroGradient;
    }
    fixedWalls
    {
        type            zeroGradient;
    }
    frontAndBack
    {
        type            empty;
    }
}


// ************************************************************************* //
