/*--------------------------------*- C++ -*----------------------------------*\
| =========                 |                                                 |
| \\      /  F ield         | OpenFOAM: The Open Source CFD Toolbox           |
|  \\    /   O peration     | Version:  4.1                                   |
|   \\  /    A nd           | Web:      www.OpenFOAM.org                      |
|    \\/     M anipulation  |                                                 |
\*---------------------------------------------------------------------------*/
FoamFile
{
    version     2.0;
    format      ascii;
    class       surfaceScalarField;
    location    "8.5";
    object      phi;
}
// * * * * * * * * * * * * * * * * * * * * * * * * * * * * * * * * * * * * * //

dimensions      [0 3 -1 0 0 0 0];

internalField   nonuniform List<scalar> 
760
(
-4.7188e-08
4.71807e-08
-5.81083e-07
5.33895e-07
-1.62757e-06
1.04649e-06
-3.01187e-06
1.3843e-06
-4.45985e-06
1.44798e-06
-5.81538e-06
1.35553e-06
-6.97703e-06
1.16165e-06
-7.90947e-06
9.32444e-07
-8.58807e-06
6.78601e-07
-9.05468e-06
4.66604e-07
-9.29939e-06
2.44713e-07
-9.34144e-06
4.20499e-08
-9.14595e-06
-1.95495e-07
-8.72255e-06
-4.23398e-07
-7.98143e-06
-7.41119e-07
-6.88364e-06
-1.09779e-06
-5.35273e-06
-1.5309e-06
-3.44553e-06
-1.9072e-06
-1.47499e-06
-1.97054e-06
-1.47499e-06
-7.04163e-07
7.51344e-07
-1.82357e-06
1.65331e-06
-3.21812e-06
2.44103e-06
-4.63662e-06
2.8028e-06
-5.95296e-06
2.76431e-06
-7.07406e-06
2.47663e-06
-7.96991e-06
2.0575e-06
-8.64518e-06
1.60771e-06
-9.14646e-06
1.17988e-06
-9.45181e-06
7.71958e-07
-9.5661e-06
3.58999e-07
-9.4689e-06
-5.51438e-08
-9.23127e-06
-4.33125e-07
-8.77977e-06
-8.74905e-07
-8.10283e-06
-1.41806e-06
-7.11804e-06
-2.08258e-06
-5.76851e-06
-2.88043e-06
-3.98808e-06
-3.68763e-06
-1.92318e-06
-4.03545e-06
-3.39817e-06
-1.1673e-06
1.91864e-06
-2.55005e-06
3.03606e-06
-3.92674e-06
3.81772e-06
-5.16806e-06
4.04413e-06
-6.20957e-06
3.80583e-06
-7.01121e-06
3.27827e-06
-7.59463e-06
2.64092e-06
-7.96155e-06
1.97463e-06
-8.16435e-06
1.38268e-06
-8.21008e-06
8.1769e-07
-8.16858e-06
3.17496e-07
-8.04697e-06
-1.76748e-07
-7.81611e-06
-6.63987e-07
-7.45739e-06
-1.23362e-06
-6.95839e-06
-1.91707e-06
-6.25099e-06
-2.78998e-06
-5.25834e-06
-3.87308e-06
-3.84394e-06
-5.10203e-06
-2.02515e-06
-5.85424e-06
-5.42332e-06
-1.33855e-06
3.25719e-06
-2.71552e-06
4.41303e-06
-3.92552e-06
5.02771e-06
-4.91188e-06
5.03049e-06
-5.61908e-06
4.51303e-06
-6.0506e-06
3.70979e-06
-6.26494e-06
2.85526e-06
-6.34702e-06
2.05671e-06
-6.36199e-06
1.39764e-06
-6.34492e-06
8.00623e-07
-6.28587e-06
2.58445e-07
-6.17973e-06
-2.82888e-07
-5.99679e-06
-8.46926e-07
-5.73993e-06
-1.49049e-06
-5.39361e-06
-2.26338e-06
-4.94505e-06
-3.23854e-06
-4.31211e-06
-4.50602e-06
-3.30791e-06
-6.10622e-06
-1.83919e-06
-7.32296e-06
-7.26251e-06
-1.2466e-06
4.50379e-06
-2.4383e-06
5.60474e-06
-3.41982e-06
6.00923e-06
-4.12396e-06
5.73463e-06
-4.52333e-06
4.9124e-06
-4.69313e-06
3.87959e-06
-4.75589e-06
2.91803e-06
-4.79249e-06
2.0933e-06
-4.79638e-06
1.40154e-06
-4.77407e-06
7.78311e-07
-4.71791e-06
2.02287e-07
-4.61581e-06
-3.84983e-07
-4.46029e-06
-1.00245e-06
-4.25156e-06
-1.69922e-06
-3.98893e-06
-2.52601e-06
-3.66689e-06
-3.56058e-06
-3.28133e-06
-4.89159e-06
-2.6188e-06
-6.76875e-06
-1.53011e-06
-8.41165e-06
-8.79262e-06
-1.0213e-06
5.5251e-06
-1.97661e-06
6.56004e-06
-2.71474e-06
6.74736e-06
-3.1893e-06
6.20918e-06
-3.40878e-06
5.13188e-06
-3.49845e-06
3.96926e-06
-3.54404e-06
2.96361e-06
-3.58523e-06
2.13449e-06
-3.61268e-06
1.42898e-06
-3.61723e-06
7.82862e-07
-3.58236e-06
1.67422e-07
-3.50267e-06
-4.64675e-07
-3.36807e-06
-1.13705e-06
-3.17796e-06
-1.88933e-06
-2.9422e-06
-2.76177e-06
-2.67406e-06
-3.82871e-06
-2.41578e-06
-5.14986e-06
-2.0513e-06
-7.13323e-06
-1.2198e-06
-9.24315e-06
-1.00124e-05
-7.67712e-07
6.29281e-06
-1.45304e-06
7.24536e-06
-1.97375e-06
7.26808e-06
-2.29035e-06
6.52579e-06
-2.43527e-06
5.27681e-06
-2.50572e-06
4.03971e-06
-2.56188e-06
3.01977e-06
-2.61732e-06
2.18994e-06
-2.65741e-06
1.46907e-06
-2.6738e-06
7.99258e-07
-2.65474e-06
1.48363e-07
-2.59811e-06
-5.21304e-07
-2.49645e-06
-1.23871e-06
-2.34452e-06
-2.04126e-06
-2.15077e-06
-2.95552e-06
-1.91715e-06
-4.06233e-06
-1.69919e-06
-5.36783e-06
-1.48759e-06
-7.34483e-06
-9.71683e-07
-9.75906e-06
-1.09841e-05
-4.81138e-07
6.77395e-06
-9.45202e-07
7.70943e-06
-1.29504e-06
7.61792e-06
-1.50354e-06
6.73428e-06
-1.60874e-06
5.38201e-06
-1.67129e-06
4.10226e-06
-1.73134e-06
3.07982e-06
-1.78772e-06
2.24632e-06
-1.82754e-06
1.50889e-06
-1.84543e-06
8.17145e-07
-1.83623e-06
1.39167e-07
-1.8e-06
-5.57532e-07
-1.73439e-06
-1.30433e-06
-1.63135e-06
-2.1443e-06
-1.49354e-06
-3.09333e-06
-1.32416e-06
-4.23172e-06
-1.1718e-06
-5.52019e-06
-1.06162e-06
-7.455e-06
-7.38091e-07
-1.00826e-05
-1.17222e-05
-2.42376e-07
7.01632e-06
-4.79808e-07
7.94686e-06
-6.70441e-07
7.80855e-06
-7.97891e-07
6.86173e-06
-8.74231e-07
5.45835e-06
-9.34856e-07
4.16289e-06
-9.92469e-07
3.13743e-06
-1.04107e-06
2.29492e-06
-1.07489e-06
1.54271e-06
-1.09277e-06
8.35029e-07
-1.09389e-06
1.40282e-07
-1.07854e-06
-5.72882e-07
-1.04911e-06
-1.33376e-06
-9.95284e-07
-2.19812e-06
-9.21454e-07
-3.16716e-06
-8.10129e-07
-4.34304e-06
-7.29826e-07
-5.6005e-06
-6.69366e-07
-7.51546e-06
-5.61869e-07
-1.01901e-05
-1.22841e-05
2.39812e-08
6.99234e-06
-5.87222e-08
8.02956e-06
-1.26687e-07
7.87652e-06
-1.73903e-07
6.90895e-06
-2.15275e-07
5.49972e-06
-2.64043e-07
4.21166e-06
-3.08531e-07
3.18192e-06
-3.42661e-07
2.32905e-06
-3.68544e-07
1.56859e-06
-3.8758e-07
8.54065e-07
-4.01007e-07
1.53709e-07
-4.07475e-07
-5.66413e-07
-4.11998e-07
-1.32924e-06
-4.11044e-07
-2.19907e-06
-3.99861e-07
-3.17834e-06
-3.698e-07
-4.3731e-06
-3.73403e-07
-5.59689e-06
-3.92718e-07
-7.49614e-06
-4.10232e-07
-1.01726e-05
-1.26943e-05
2.35895e-07
6.75645e-06
3.75297e-07
7.89016e-06
4.63854e-07
7.78796e-06
4.57477e-07
6.91532e-06
4.30937e-07
5.52626e-06
3.95063e-07
4.24753e-06
3.64299e-07
3.21268e-06
3.40918e-07
2.35243e-06
3.19577e-07
1.58993e-06
2.97343e-07
8.763e-07
2.70508e-07
1.80544e-07
2.38635e-07
-5.3454e-07
2.03335e-07
-1.29394e-06
1.47582e-07
-2.14332e-06
1.17853e-07
-3.14861e-06
1.89399e-08
-4.27419e-06
1.60861e-08
-5.59404e-06
-1.60499e-07
-7.31956e-06
-2.99692e-07
-1.00334e-05
-1.2994e-05
4.70339e-07
6.28611e-06
7.77886e-07
7.58262e-06
1.00353e-06
7.56232e-06
1.07178e-06
6.84707e-06
1.06857e-06
5.52947e-06
1.04784e-06
4.26826e-06
1.03399e-06
3.22653e-06
1.02572e-06
2.36069e-06
1.0129e-06
1.60276e-06
9.90113e-07
8.99085e-07
9.50731e-07
2.19927e-07
8.95365e-07
-4.79175e-07
8.17592e-07
-1.21616e-06
7.34656e-07
-2.06039e-06
6.03441e-07
-3.01739e-06
4.91466e-07
-4.16222e-06
3.03017e-07
-5.40559e-06
1.5008e-08
-7.03155e-06
-1.70771e-07
-9.8476e-06
-1.31648e-05
6.73276e-07
5.61283e-06
1.17602e-06
7.07987e-06
1.54774e-06
7.1906e-06
1.72959e-06
6.66522e-06
1.77577e-06
5.48328e-06
1.7767e-06
4.26734e-06
1.77473e-06
3.22851e-06
1.77366e-06
2.36176e-06
1.76148e-06
1.61494e-06
1.73193e-06
9.28637e-07
1.67562e-06
2.76238e-07
1.59369e-06
-3.9725e-07
1.47823e-06
-1.1007e-06
1.34359e-06
-1.92574e-06
1.14625e-06
-2.82005e-06
9.57204e-07
-3.97317e-06
6.41374e-07
-5.08976e-06
3.0562e-07
-6.6958e-06
7.03174e-09
-9.54901e-06
-1.31577e-05
8.56969e-07
4.75586e-06
1.53043e-06
6.40641e-06
2.04158e-06
6.67944e-06
2.37212e-06
6.33469e-06
2.50501e-06
5.35039e-06
2.5506e-06
4.22174e-06
2.57151e-06
3.2076e-06
2.58363e-06
2.34964e-06
2.57781e-06
1.62076e-06
2.54751e-06
9.58929e-07
2.47959e-06
3.44164e-07
2.37619e-06
-2.9385e-07
2.22313e-06
-9.47646e-07
2.03168e-06
-1.73429e-06
1.76714e-06
-2.55551e-06
1.46542e-06
-3.67145e-06
1.02267e-06
-4.64702e-06
5.76194e-07
-6.24932e-06
1.47392e-07
-9.12021e-06
-1.30103e-05
9.54943e-07
3.80092e-06
1.82095e-06
5.5404e-06
2.51396e-06
5.98644e-06
3.03209e-06
5.81656e-06
3.32105e-06
5.06143e-06
3.46845e-06
4.07434e-06
3.53685e-06
3.13921e-06
3.5691e-06
2.31738e-06
3.56649e-06
1.62337e-06
3.53179e-06
9.93628e-07
3.4455e-06
4.30455e-07
3.31069e-06
-1.59047e-07
3.10798e-06
-7.44931e-07
2.84706e-06
-1.47337e-06
2.48883e-06
-2.19728e-06
2.04435e-06
-3.22698e-06
1.45956e-06
-4.06222e-06
8.64988e-07
-5.65475e-06
3.04293e-07
-8.55952e-06
-1.2706e-05
9.91837e-07
2.80908e-06
1.94268e-06
4.58956e-06
2.805e-06
5.12412e-06
3.53589e-06
5.08567e-06
4.04626e-06
4.55106e-06
4.36894e-06
3.75166e-06
4.55673e-06
2.95142e-06
4.65891e-06
2.2152e-06
4.69012e-06
1.59216e-06
4.66738e-06
1.01637e-06
4.56862e-06
5.29214e-07
4.41533e-06
-5.75838e-09
4.1619e-06
-4.91492e-07
3.82251e-06
-1.13399e-06
3.34555e-06
-1.72031e-06
2.71781e-06
-2.59924e-06
1.95007e-06
-3.29448e-06
1.16978e-06
-4.87446e-06
4.74033e-07
-7.86377e-06
-1.2232e-05
7.86944e-07
2.02214e-06
1.88758e-06
3.48893e-06
2.95022e-06
4.06148e-06
3.92436e-06
4.11152e-06
4.70952e-06
3.7659e-06
5.27954e-06
3.18164e-06
5.65816e-06
2.5728e-06
5.90055e-06
1.97281e-06
6.01007e-06
1.48264e-06
6.03672e-06
9.89723e-07
5.95207e-06
6.13861e-07
5.76622e-06
1.80098e-07
5.44072e-06
-1.65993e-07
4.99761e-06
-6.90877e-07
4.35646e-06
-1.07917e-06
3.51746e-06
-1.76024e-06
2.55462e-06
-2.33164e-06
1.5897e-06
-3.90954e-06
6.77454e-07
-6.95153e-06
-1.15546e-05
2.80272e-07
1.74187e-06
1.3191e-06
2.4501e-06
2.53303e-06
2.84755e-06
3.75985e-06
2.88469e-06
4.83686e-06
2.68889e-06
5.70433e-06
2.31418e-06
6.32913e-06
1.94799e-06
6.77068e-06
1.53127e-06
7.02416e-06
1.22916e-06
7.13947e-06
8.74409e-07
7.09464e-06
6.58689e-07
6.94191e-06
3.32824e-07
6.63665e-06
1.39268e-07
6.1506e-06
-2.04824e-07
5.47322e-06
-4.01784e-07
4.60932e-06
-8.96341e-07
3.61284e-06
-1.33516e-06
2.5542e-06
-2.8509e-06
1.19719e-06
-5.59452e-06
-1.03574e-05
-4.95522e-07
2.23739e-06
4.53863e-07
1.50072e-06
1.95209e-06
1.34932e-06
3.47692e-06
1.35986e-06
4.81285e-06
1.35296e-06
5.91652e-06
1.21051e-06
6.78731e-06
1.07721e-06
7.44588e-06
8.72695e-07
7.92451e-06
7.50533e-07
8.22408e-06
5.74841e-07
8.40164e-06
4.81123e-07
8.42016e-06
3.14309e-07
8.32404e-06
2.35384e-07
8.05078e-06
6.84325e-08
7.67357e-06
-2.45684e-08
7.10062e-06
-3.23395e-07
6.37596e-06
-6.10497e-07
5.1861e-06
-1.66104e-06
2.85798e-06
-3.26639e-06
-7.49939e-06
2.23739e-06
3.73811e-06
5.08743e-06
6.44729e-06
7.80025e-06
9.01076e-06
1.0088e-05
1.09607e-05
1.17112e-05
1.2286e-05
1.27672e-05
1.30815e-05
1.33169e-05
1.33853e-05
1.33607e-05
1.30373e-05
1.24268e-05
1.07658e-05
7.49939e-06
)
;

boundaryField
{
    movingWall
    {
        type            calculated;
        value           uniform 0;
    }
    fixedWalls
    {
        type            calculated;
        value           uniform 0;
    }
    frontAndBack
    {
        type            empty;
        value           nonuniform 0();
    }
}


// ************************************************************************* //
