/*--------------------------------*- C++ -*----------------------------------*\
| =========                 |                                                 |
| \\      /  F ield         | OpenFOAM: The Open Source CFD Toolbox           |
|  \\    /   O peration     | Version:  4.1                                   |
|   \\  /    A nd           | Web:      www.OpenFOAM.org                      |
|    \\/     M anipulation  |                                                 |
\*---------------------------------------------------------------------------*/
FoamFile
{
    version     2.0;
    format      ascii;
    class       volVectorField;
    location    "8.5";
    object      U;
}
// * * * * * * * * * * * * * * * * * * * * * * * * * * * * * * * * * * * * * //

dimensions      [0 1 -1 0 0 0 0];

internalField   nonuniform List<vector> 
400
(
(0.00147408 -0.00312756 0)
(-0.00355881 0.00260645 0)
(-0.0177466 0.00917504 0)
(-0.0451543 0.0151325 0)
(-0.0766087 0.0161205 0)
(-0.105792 0.0145913 0)
(-0.131279 0.0125158 0)
(-0.151475 0.0101065 0)
(-0.167056 0.00793181 0)
(-0.178196 0.00548438 0)
(-0.184979 0.00339607 0)
(-0.187805 0.0013206 0)
(-0.186954 -0.00198236 0)
(-0.179563 -0.00440565 0)
(-0.167395 -0.008571 0)
(-0.147227 -0.0124344 0)
(-0.120239 -0.0172415 0)
(-0.0854676 -0.0201336 0)
(-0.0484879 -0.0188078 0)
(-0.0154814 -0.0103879 0)
(-0.00563263 0.00561783 0)
(-0.0220017 0.0208355 0)
(-0.0481772 0.035363 0)
(-0.0793275 0.042324 0)
(-0.108743 0.0423225 0)
(-0.13369 0.038453 0)
(-0.15329 0.0326351 0)
(-0.167646 0.0264191 0)
(-0.179964 0.0185596 0)
(-0.187179 0.0125154 0)
(-0.191763 0.00587814 0)
(-0.191777 -2.5033e-05 0)
(-0.188688 -0.00705864 0)
(-0.181248 -0.0146643 0)
(-0.169371 -0.0242307 0)
(-0.151472 -0.0353791 0)
(-0.127088 -0.0482609 0)
(-0.0952626 -0.0596715 0)
(-0.0595103 -0.0616937 0)
(-0.0210638 -0.0464264 0)
(-0.0113481 0.0265988 0)
(-0.0352221 0.0473969 0)
(-0.0647614 0.0628755 0)
(-0.0934239 0.0682251 0)
(-0.117354 0.065148 0)
(-0.13527 0.0568922 0)
(-0.147643 0.0460361 0)
(-0.157612 0.034469 0)
(-0.162698 0.024964 0)
(-0.164231 0.0151444 0)
(-0.164601 0.00617336 0)
(-0.162796 -0.00310525 0)
(-0.160093 -0.0126002 0)
(-0.153666 -0.0236057 0)
(-0.145131 -0.0367837 0)
(-0.131947 -0.0534144 0)
(-0.113931 -0.0733117 0)
(-0.0883623 -0.0941225 0)
(-0.0589526 -0.104585 0)
(-0.022029 -0.0924099 0)
(-0.0138079 0.0517078 0)
(-0.0403616 0.0747958 0)
(-0.0682799 0.0882067 0)
(-0.0920765 0.0899318 0)
(-0.109005 0.0823523 0)
(-0.11926 0.0690458 0)
(-0.124919 0.0544343 0)
(-0.126815 0.0404524 0)
(-0.12653 0.0277363 0)
(-0.127668 0.0161204 0)
(-0.126523 0.00578392 0)
(-0.125485 -0.00452909 0)
(-0.12237 -0.015147 0)
(-0.118378 -0.0275758 0)
(-0.112239 -0.0426971 0)
(-0.104366 -0.062304 0)
(-0.0925112 -0.0872824 0)
(-0.0732059 -0.116523 0)
(-0.0515763 -0.136156 0)
(-0.0196555 -0.131552 0)
(-0.0134818 0.0764996 0)
(-0.037633 0.0989074 0)
(-0.0617303 0.109222 0)
(-0.0796291 0.106808 0)
(-0.0897572 0.0938583 0)
(-0.0935476 0.0761048 0)
(-0.0947126 0.0584135 0)
(-0.0951178 0.0423709 0)
(-0.0956611 0.0286079 0)
(-0.0958296 0.016249 0)
(-0.0951082 0.0049304 0)
(-0.0937707 -0.00628361 0)
(-0.0912325 -0.0179402 0)
(-0.0877295 -0.0312008 0)
(-0.083114 -0.0471716 0)
(-0.0775177 -0.0677005 0)
(-0.0710214 -0.0951378 0)
(-0.055824 -0.132045 0)
(-0.0419731 -0.160808 0)
(-0.0166191 -0.164401 0)
(-0.010747 0.0989301 0)
(-0.0313364 0.121065 0)
(-0.0503203 0.127071 0)
(-0.0629853 0.119191 0)
(-0.0682711 0.100701 0)
(-0.0691202 0.0791596 0)
(-0.0698735 0.0595008 0)
(-0.0708769 0.0427329 0)
(-0.0719127 0.0285549 0)
(-0.0723692 0.0156325 0)
(-0.0722328 0.00350815 0)
(-0.0711357 -0.00878649 0)
(-0.0690798 -0.02171 0)
(-0.0658546 -0.0360565 0)
(-0.0615541 -0.0526832 0)
(-0.0562251 -0.0732065 0)
(-0.0531025 -0.0997764 0)
(-0.0407208 -0.140219 0)
(-0.0359168 -0.178815 0)
(-0.00935953 -0.190442 0)
(-0.008392 0.117545 0)
(-0.0234464 0.137257 0)
(-0.0372633 0.139293 0)
(-0.0459413 0.126997 0)
(-0.0484316 0.10429 0)
(-0.0487772 0.080577 0)
(-0.0501441 0.0602252 0)
(-0.0515398 0.043488 0)
(-0.0527773 0.0291019 0)
(-0.0534236 0.0158303 0)
(-0.053506 0.0030548 0)
(-0.0527341 -0.0100845 0)
(-0.0511528 -0.0241138 0)
(-0.0486442 -0.0397292 0)
(-0.0453021 -0.0575442 0)
(-0.0396989 -0.0790694 0)
(-0.0390234 -0.104747 0)
(-0.0270611 -0.1446 0)
(-0.0287931 -0.191668 0)
(-0.00632548 -0.21168 0)
(-0.00493243 0.130588 0)
(-0.0150985 0.150003 0)
(-0.0249201 0.149418 0)
(-0.0304611 0.1331 0)
(-0.0315662 0.107198 0)
(-0.0320255 0.0818823 0)
(-0.0336875 0.061247 0)
(-0.0350685 0.044496 0)
(-0.0362232 0.0298286 0)
(-0.036836 0.0161535 0)
(-0.0369787 0.00280866 0)
(-0.036506 -0.0109257 0)
(-0.035441 -0.0256501 0)
(-0.0336713 -0.0421315 0)
(-0.0319702 -0.060698 0)
(-0.0263107 -0.0831389 0)
(-0.0283605 -0.108636 0)
(-0.0167167 -0.148004 0)
(-0.0240946 -0.199065 0)
(-0.00179475 -0.228028 0)
(-0.00279079 0.139063 0)
(-0.00755087 0.156711 0)
(-0.0131572 0.154213 0)
(-0.0163344 0.135895 0)
(-0.0167583 0.108253 0)
(-0.0174346 0.082556 0)
(-0.0191185 0.062155 0)
(-0.0202899 0.0454336 0)
(-0.021224 0.0305245 0)
(-0.0217456 0.0164976 0)
(-0.0219554 0.0027249 0)
(-0.0218014 -0.0114344 0)
(-0.0213624 -0.0265985 0)
(-0.0201431 -0.0437463 0)
(-0.0204308 -0.0629827 0)
(-0.0146887 -0.0861002 0)
(-0.0194497 -0.111329 0)
(-0.00782609 -0.149954 0)
(-0.0198359 -0.202782 0)
(0.000571702 -0.240986 0)
(0.00114532 0.141162 0)
(-0.000310007 0.161365 0)
(-0.00260555 0.158318 0)
(-0.00368725 0.138608 0)
(-0.00377917 0.110248 0)
(-0.00439738 0.0841192 0)
(-0.00568864 0.0634076 0)
(-0.00647747 0.0463577 0)
(-0.00713495 0.0311606 0)
(-0.00758176 0.0168829 0)
(-0.00790963 0.0028826 0)
(-0.00806925 -0.0114892 0)
(-0.00840727 -0.0267792 0)
(-0.00749916 -0.0441468 0)
(-0.00988205 -0.0638633 0)
(-0.00444121 -0.0872199 0)
(-0.0121325 -0.112899 0)
(-0.000637458 -0.150057 0)
(-0.017095 -0.203981 0)
(0.00368226 -0.250514 0)
(0.00324799 0.138777 0)
(0.00598288 0.160053 0)
(0.00780995 0.157019 0)
(0.00856898 0.137955 0)
(0.00899246 0.109812 0)
(0.00863772 0.0840972 0)
(0.00767552 0.0636203 0)
(0.00711524 0.0466536 0)
(0.00662434 0.0315115 0)
(0.00619287 0.0172557 0)
(0.00568182 0.00327476 0)
(0.00526775 -0.0111205 0)
(0.00403311 -0.0263955 0)
(0.00461902 -0.0436533 0)
(0.000567342 -0.0636644 0)
(0.00524297 -0.0868178 0)
(-0.00500826 -0.112608 0)
(0.00628153 -0.1478 0)
(-0.0147654 -0.202806 0)
(0.00586026 -0.257283 0)
(0.00580504 0.132839 0)
(0.0125513 0.157195 0)
(0.0171139 0.155662 0)
(0.020177 0.139075 0)
(0.02141 0.111286 0)
(0.0215567 0.0856136 0)
(0.0210053 0.0646901 0)
(0.0207195 0.0473362 0)
(0.0204571 0.0320532 0)
(0.0201295 0.0178052 0)
(0.0194053 0.00397747 0)
(0.018833 -0.0102359 0)
(0.0166501 -0.0253017 0)
(0.0168075 -0.0423087 0)
(0.0113841 -0.0619829 0)
(0.0148632 -0.0851149 0)
(0.00240646 -0.110291 0)
(0.0126528 -0.144098 0)
(-0.0131208 -0.199354 0)
(0.00913008 -0.261138 0)
(0.00792645 0.120918 0)
(0.0183727 0.147738 0)
(0.0269496 0.147722 0)
(0.0319463 0.135496 0)
(0.0349532 0.109367 0)
(0.035892 0.0844228 0)
(0.035795 0.0638055 0)
(0.03567 0.046718 0)
(0.0354488 0.0318464 0)
(0.0351518 0.0180633 0)
(0.033967 0.00479618 0)
(0.0333488 -0.00890754 0)
(0.029995 -0.0233629 0)
(0.0299024 -0.040153 0)
(0.0228079 -0.058767 0)
(0.0252614 -0.0820925 0)
(0.0106141 -0.105148 0)
(0.0191359 -0.137833 0)
(-0.0107581 -0.193562 0)
(0.0125823 -0.262769 0)
(0.0104478 0.106715 0)
(0.0236076 0.138381 0)
(0.0357201 0.141668 0)
(0.0432039 0.132448 0)
(0.0484236 0.1102 0)
(0.0507631 0.0857898 0)
(0.0515149 0.0648341 0)
(0.0518115 0.0474167 0)
(0.051679 0.0326061 0)
(0.0516824 0.0190858 0)
(0.0499534 0.00631649 0)
(0.0495604 -0.00688819 0)
(0.0450347 -0.0205622 0)
(0.0446621 -0.036764 0)
(0.0358662 -0.0540113 0)
(0.0370659 -0.0766943 0)
(0.0199452 -0.0976286 0)
(0.0257688 -0.130291 0)
(-0.00808939 -0.187273 0)
(0.0171273 -0.262777 0)
(0.0113424 0.0863184 0)
(0.0278208 0.120013 0)
(0.0434968 0.127297 0)
(0.0546256 0.12207 0)
(0.0628697 0.10453 0)
(0.067746 0.0827941 0)
(0.0701264 0.0628765 0)
(0.0714174 0.0459398 0)
(0.071267 0.0317268 0)
(0.071744 0.0189747 0)
(0.0691963 0.00731306 0)
(0.0689302 -0.00492655 0)
(0.0630584 -0.0171343 0)
(0.0620527 -0.0321065 0)
(0.0514357 -0.0474218 0)
(0.0508126 -0.0687822 0)
(0.0306788 -0.0870708 0)
(0.0332439 -0.119564 0)
(-0.00526666 -0.178218 0)
(0.0220205 -0.262198 0)
(0.0127277 0.0685752 0)
(0.0292927 0.105181 0)
(0.0475611 0.115451 0)
(0.0627831 0.113337 0)
(0.0749257 0.100412 0)
(0.0835942 0.0818671 0)
(0.0888578 0.063553 0)
(0.0926504 0.0471324 0)
(0.0930862 0.0334267 0)
(0.0947649 0.0210875 0)
(0.0916137 0.0103947 0)
(0.0915422 -0.000958902 0)
(0.084588 -0.0115868 0)
(0.0827006 -0.0252358 0)
(0.0704473 -0.0383663 0)
(0.0667098 -0.0576645 0)
(0.0429239 -0.0732758 0)
(0.0415456 -0.1067 0)
(-0.00279608 -0.168679 0)
(0.0278808 -0.259454 0)
(0.00670133 0.0426045 0)
(0.0277332 0.0775237 0)
(0.0490088 0.0908378 0)
(0.0681914 0.0925251 0)
(0.0852066 0.0847282 0)
(0.0991766 0.0713882 0)
(0.108228 0.0570773 0)
(0.116251 0.0431784 0)
(0.118329 0.0311282 0)
(0.122061 0.0198915 0)
(0.11898 0.0106236 0)
(0.119172 0.000677736 0)
(0.111077 -0.00781111 0)
(0.107515 -0.0189649 0)
(0.0930851 -0.0284831 0)
(0.0847462 -0.0437855 0)
(0.0571278 -0.0564065 0)
(0.0520571 -0.090179 0)
(0.000873555 -0.15412 0)
(0.035719 -0.248971 0)
(-0.00151161 0.0441968 0)
(0.0150481 0.0669604 0)
(0.03938 0.0760334 0)
(0.062973 0.0767282 0)
(0.0843311 0.0710265 0)
(0.105022 0.0609681 0)
(0.118737 0.0506051 0)
(0.13195 0.0401648 0)
(0.136825 0.0320338 0)
(0.143189 0.0227848 0)
(0.14168 0.016328 0)
(0.14232 0.0078743 0)
(0.134969 0.00242657 0)
(0.130316 -0.00640799 0)
(0.11552 -0.0122111 0)
(0.105661 -0.0242234 0)
(0.0777738 -0.035498 0)
(0.0717066 -0.0693308 0)
(0.0145825 -0.129783 0)
(0.051486 -0.217915 0)
(-0.00846562 0.0110303 0)
(-0.00635077 0.0171556 0)
(0.0237271 0.0280362 0)
(0.0551203 0.0332346 0)
(0.0812016 0.0341442 0)
(0.107289 0.0305763 0)
(0.125453 0.0269221 0)
(0.14316 0.0207733 0)
(0.153114 0.0169994 0)
(0.162734 0.0117594 0)
(0.166089 0.0091549 0)
(0.169258 0.00435051 0)
(0.167251 0.0022235 0)
(0.164735 -0.00297686 0)
(0.156 -0.00546621 0)
(0.149405 -0.0132043 0)
(0.130247 -0.0200543 0)
(0.121891 -0.0458967 0)
(0.0624259 -0.0885535 0)
(0.0879913 -0.159527 0)
(0.0472437 0.0977206 0)
(0.0532247 0.057428 0)
(0.0872054 0.0358613 0)
(0.11676 0.0272474 0)
(0.141579 0.0236671 0)
(0.167953 0.0204262 0)
(0.189764 0.0183321 0)
(0.210765 0.0157475 0)
(0.226546 0.0142385 0)
(0.240893 0.0122201 0)
(0.250606 0.011175 0)
(0.259323 0.00940681 0)
(0.264003 0.00851923 0)
(0.26774 0.00654161 0)
(0.267166 0.00507478 0)
(0.263744 0.00252523 0)
(0.253905 0.000980895 0)
(0.237068 -0.00827356 0)
(0.180843 -0.0205491 0)
(0.16872 -0.116268 0)
)
;

boundaryField
{
    movingWall
    {
        type            fixedValue;
        value           uniform (1 0 0);
    }
    fixedWalls
    {
        type            noSlip;
    }
    frontAndBack
    {
        type            empty;
    }
}


// ************************************************************************* //
