/*--------------------------------*- C++ -*----------------------------------*\
| =========                 |                                                 |
| \\      /  F ield         | OpenFOAM: The Open Source CFD Toolbox           |
|  \\    /   O peration     | Version:  4.1                                   |
|   \\  /    A nd           | Web:      www.OpenFOAM.org                      |
|    \\/     M anipulation  |                                                 |
\*---------------------------------------------------------------------------*/
FoamFile
{
    version     2.0;
    format      ascii;
    class       volScalarField;
    location    "6";
    object      epsilon;
}
// * * * * * * * * * * * * * * * * * * * * * * * * * * * * * * * * * * * * * //

dimensions      [0 2 -3 0 0 0 0];

internalField   nonuniform List<scalar> 
400
(
0.000260625
0.000853541
0.00277273
0.00579111
0.00860507
0.0105698
0.0117752
0.0123439
0.0125336
0.0124785
0.0119419
0.0113003
0.0104124
0.00955994
0.00868185
0.0079067
0.00724476
0.00660959
0.0051906
0.00406211
0.000618923
0.00159266
0.00340932
0.00470392
0.00508833
0.00480671
0.00418293
0.00355945
0.00300801
0.00260851
0.00239359
0.00232668
0.00246962
0.0027846
0.00327058
0.00406006
0.0052853
0.00696786
0.00892355
0.00981046
0.00148289
0.00233987
0.00298289
0.00303701
0.00241055
0.00189659
0.00146169
0.00122136
0.00109784
0.00104705
0.00103771
0.00109689
0.00122537
0.00144278
0.00184604
0.00256588
0.00386871
0.00619684
0.0103574
0.015619
0.00227844
0.00226333
0.00233994
0.00184478
0.00123317
0.000932622
0.000730775
0.00063553
0.000576186
0.000547263
0.000536872
0.00054169
0.000596045
0.000701905
0.000935319
0.00142284
0.0025012
0.00488097
0.0104806
0.0197009
0.0028724
0.00206566
0.00178214
0.00112952
0.000727827
0.000541031
0.000421821
0.000358629
0.000310058
0.000286131
0.000275894
0.000275181
0.000308478
0.000375385
0.000525915
0.000878619
0.00174358
0.00389146
0.00989759
0.0229161
0.00346014
0.00181771
0.00133445
0.000747356
0.000475215
0.000345104
0.000260129
0.000210293
0.000174911
0.000158093
0.000151786
0.000153267
0.000176805
0.000222852
0.000324246
0.000567646
0.00125849
0.00325429
0.00947224
0.0254724
0.00408922
0.00158334
0.0010252
0.000544938
0.000340171
0.000240216
0.000173766
0.000134335
0.000109806
9.85337e-05
9.46953e-05
9.73543e-05
0.000113696
0.000145982
0.000214821
0.000380515
0.000903871
0.00267464
0.00905157
0.0276744
0.00482919
0.00142246
0.000817606
0.00043079
0.000266135
0.00018347
0.000127729
9.57844e-05
7.81064e-05
7.0266e-05
6.78892e-05
7.09995e-05
8.31686e-05
0.000107047
0.000157815
0.000276203
0.000689044
0.0022851
0.00877604
0.0296138
0.00551116
0.00129292
0.000689347
0.000367525
0.000228578
0.000153593
0.000103505
7.64207e-05
6.2864e-05
5.71601e-05
5.57356e-05
5.91202e-05
6.8865e-05
8.76206e-05
0.000125772
0.000210896
0.000512544
0.00191829
0.00862487
0.0314693
0.00634063
0.00126808
0.000605986
0.000332087
0.000209233
0.000137566
9.19398e-05
6.82222e-05
5.67044e-05
5.20245e-05
5.11752e-05
5.46203e-05
6.28816e-05
7.89879e-05
0.000110025
0.000179895
0.000415707
0.00168345
0.00855501
0.0333037
0.00692863
0.00134729
0.000569086
0.000315831
0.000205859
0.000137026
9.20614e-05
6.83401e-05
5.67172e-05
5.17601e-05
5.08676e-05
5.36833e-05
6.10895e-05
7.62125e-05
0.000102936
0.000165434
0.000354806
0.00149184
0.00853932
0.0352664
0.00748724
0.00157114
0.000583259
0.000319107
0.000209375
0.000140526
9.54931e-05
7.1109e-05
5.89939e-05
5.39004e-05
5.3821e-05
5.63749e-05
6.29528e-05
7.67113e-05
0.000101314
0.000160958
0.000332555
0.00140803
0.00853852
0.0374656
0.00752712
0.00194656
0.000641036
0.000334295
0.000219073
0.000149843
0.000104087
7.82103e-05
6.50834e-05
5.9782e-05
6.02055e-05
6.30464e-05
6.97088e-05
8.3889e-05
0.000107675
0.00016443
0.000326528
0.00138377
0.00867552
0.0401059
0.00734267
0.0023909
0.000779793
0.000374691
0.00023868
0.000167117
0.000121192
9.30516e-05
7.79531e-05
7.18006e-05
7.23324e-05
7.56054e-05
8.27455e-05
9.79178e-05
0.000122676
0.000184097
0.000350907
0.0014703
0.00951847
0.0434125
0.00675205
0.00280176
0.000999633
0.000461517
0.000279472
0.00019309
0.000142515
0.000113259
9.74987e-05
9.14889e-05
9.22328e-05
9.6139e-05
0.000104041
0.00012057
0.000148948
0.000221841
0.000417725
0.00172725
0.0110994
0.0479406
0.00575592
0.00294504
0.00135552
0.000666408
0.000378033
0.000249026
0.000181815
0.00014412
0.000123698
0.000115784
0.000116624
0.000121462
0.000131413
0.000152532
0.000194936
0.000301766
0.000579959
0.00233299
0.0137274
0.0543136
0.00394556
0.00271308
0.00150432
0.000865703
0.000541238
0.000368699
0.000270946
0.000214444
0.000182537
0.000167865
0.000168558
0.000175334
0.000193179
0.000238719
0.000331249
0.000544371
0.00107285
0.00391144
0.0187177
0.0638113
0.00304782
0.00229418
0.00179161
0.00130902
0.000987497
0.000777132
0.00064649
0.000575163
0.000545501
0.000553733
0.000580941
0.000649741
0.000727691
0.000897113
0.00117675
0.00184804
0.00339812
0.00934912
0.0304643
0.0794981
0.00389939
0.00565587
0.00710504
0.00741897
0.00742901
0.00742732
0.00749999
0.00771965
0.00802005
0.00854156
0.0089905
0.00983187
0.0105208
0.0118337
0.0129089
0.0162188
0.0222756
0.0371901
0.0702567
0.111365
0.0448271
0.0894869
0.123305
0.136645
0.140453
0.14098
0.140909
0.141067
0.141411
0.142324
0.14317
0.144933
0.146681
0.149153
0.152533
0.155922
0.159569
0.164191
0.179689
0.154334
)
;

boundaryField
{
    movingWall
    {
        Cmu             0.09;
        kappa           0.41;
        E               9.8;
        type            epsilonWallFunction;
        value           nonuniform List<scalar> 
20
(
0.0448271
0.0894869
0.123305
0.136645
0.140453
0.14098
0.140909
0.141067
0.141411
0.142324
0.14317
0.144933
0.146681
0.149153
0.152533
0.155922
0.159569
0.164191
0.179689
0.154334
)
;
    }
    fixedWalls
    {
        Cmu             0.09;
        kappa           0.41;
        E               9.8;
        type            epsilonWallFunction;
        value           nonuniform List<scalar> 
60
(
0.000260625
0.000618923
0.00148289
0.00227844
0.0028724
0.00346014
0.00408922
0.00482919
0.00551116
0.00634063
0.00692863
0.00748724
0.00752712
0.00734267
0.00675205
0.00575592
0.00394556
0.00304782
0.00389939
0.0448271
0.00406211
0.00981046
0.015619
0.0197009
0.0229161
0.0254724
0.0276744
0.0296138
0.0314693
0.0333037
0.0352664
0.0374656
0.0401059
0.0434125
0.0479406
0.0543136
0.0638113
0.0794981
0.111365
0.154334
0.000260625
0.000853541
0.00277273
0.00579111
0.00860507
0.0105698
0.0117752
0.0123439
0.0125336
0.0124785
0.0119419
0.0113003
0.0104124
0.00955994
0.00868185
0.0079067
0.00724476
0.00660959
0.0051906
0.00406211
)
;
    }
    frontAndBack
    {
        type            empty;
    }
}


// ************************************************************************* //
