/*--------------------------------*- C++ -*----------------------------------*\
| =========                 |                                                 |
| \\      /  F ield         | OpenFOAM: The Open Source CFD Toolbox           |
|  \\    /   O peration     | Version:  4.1                                   |
|   \\  /    A nd           | Web:      www.OpenFOAM.org                      |
|    \\/     M anipulation  |                                                 |
\*---------------------------------------------------------------------------*/
FoamFile
{
    version     2.0;
    format      ascii;
    class       volScalarField;
    location    "6";
    object      k;
}
// * * * * * * * * * * * * * * * * * * * * * * * * * * * * * * * * * * * * * //

dimensions      [0 2 -2 0 0 0 0];

internalField   nonuniform List<scalar> 
400
(
0.000138411
0.000305143
0.000669045
0.00109295
0.00142307
0.0016322
0.00175411
0.00181017
0.00182869
0.00182339
0.00177074
0.00170676
0.00161615
0.00152668
0.00143172
0.00134518
0.00126903
0.00119373
0.00101608
0.000862851
0.00024632
0.000539299
0.000875003
0.00103888
0.00109245
0.00100717
0.00092391
0.000840903
0.000786417
0.000757387
0.000746089
0.000756323
0.000809527
0.000876277
0.000988171
0.00112724
0.00130409
0.00148636
0.00160062
0.00155323
0.0004411
0.000745961
0.000840807
0.000845691
0.000668985
0.000587632
0.000519913
0.00048713
0.00047125
0.000464465
0.000463058
0.000471455
0.000495457
0.000538117
0.000620054
0.000760258
0.000983159
0.00132412
0.00177691
0.00211777
0.000587013
0.000749212
0.000755226
0.000599953
0.00046838
0.000412004
0.00037726
0.000360436
0.000345268
0.000334125
0.00032771
0.000325039
0.000327951
0.000348516
0.000396289
0.000502023
0.000714087
0.00109311
0.00177782
0.0024723
0.000684888
0.000734334
0.000635807
0.000448673
0.000362794
0.000323619
0.000300778
0.000285714
0.000274223
0.000267221
0.00026321
0.000261867
0.00026365
0.000275687
0.000303643
0.000375653
0.000553926
0.00092131
0.00168368
0.00273445
0.000775371
0.000697323
0.000526852
0.000364014
0.000299292
0.000269285
0.000251407
0.000239668
0.000232747
0.000229284
0.000228188
0.000231178
0.000236955
0.000247848
0.000267456
0.000313921
0.00045425
0.000810002
0.0016375
0.0029342
0.000866634
0.000645026
0.000448758
0.000312254
0.000259846
0.000235112
0.000219651
0.000209449
0.000203908
0.000201519
0.000201251
0.000206711
0.000216357
0.000231168
0.000250911
0.000281795
0.000382594
0.000703549
0.00158676
0.00310093
0.000968292
0.000587365
0.000395104
0.00028028
0.000235795
0.00021334
0.000198094
0.000187674
0.000181421
0.000178644
0.000178219
0.000183586
0.000194268
0.000211254
0.00023468
0.000262327
0.000339911
0.000630645
0.001562
0.00324414
0.00105738
0.000550994
0.000360072
0.000259635
0.000220969
0.000199891
0.000183452
0.000172081
0.000165127
0.000162036
0.000161577
0.000166459
0.00017708
0.000194377
0.000219257
0.000245863
0.000301304
0.000556798
0.00154922
0.00337822
0.00116101
0.000521401
0.000337353
0.000248908
0.000215474
0.000192269
0.000173592
0.000161363
0.000154366
0.000151333
0.000151272
0.00015554
0.000165286
0.000181712
0.000205064
0.000234863
0.000276206
0.000507084
0.00154457
0.0035082
0.00123175
0.000526031
0.000324889
0.00024077
0.000209891
0.000185866
0.000166165
0.000153909
0.00014746
0.000144909
0.00014536
0.000149096
0.00015787
0.000174381
0.00019417
0.000226283
0.000254888
0.000457906
0.00154433
0.00364463
0.00129711
0.000546646
0.000326957
0.00024088
0.000208442
0.000183556
0.000163323
0.000150288
0.000143689
0.00014175
0.000142355
0.000145966
0.000154153
0.000170854
0.000189017
0.000222311
0.000244937
0.000431817
0.00154747
0.00379452
0.00130189
0.000589099
0.000337327
0.000243952
0.00020917
0.000184028
0.000163655
0.000150251
0.000143096
0.000141483
0.000142113
0.000145536
0.000153157
0.000169869
0.00018725
0.000220553
0.000237564
0.000418539
0.00155987
0.00397065
0.00128061
0.000653147
0.000363953
0.000253781
0.000212401
0.000186151
0.000165486
0.000151563
0.000144166
0.000143422
0.000144733
0.000149861
0.000157975
0.000176134
0.000190753
0.00022028
0.000234557
0.000414761
0.00163742
0.00418588
0.00121115
0.000716272
0.000405113
0.000275554
0.000222174
0.000192181
0.000170586
0.00015587
0.00014857
0.000149061
0.000151747
0.000159598
0.000167957
0.000186505
0.00019788
0.000220919
0.000233825
0.000434183
0.00179044
0.00447203
0.00108912
0.000760309
0.000479853
0.000323277
0.000247021
0.000208086
0.000182909
0.000166014
0.000157484
0.000158155
0.000161089
0.000169595
0.0001767
0.000191708
0.000201317
0.000219516
0.000240947
0.000501305
0.00204437
0.00485997
0.000846878
0.000733447
0.000529157
0.000391071
0.000300203
0.000247038
0.00021322
0.000190518
0.000176254
0.0001714
0.000171897
0.000175052
0.000180608
0.000192976
0.000204627
0.0002262
0.000284087
0.000676803
0.00248628
0.00541114
0.000712814
0.000676997
0.000590393
0.000485627
0.000404776
0.000340999
0.000294772
0.000262941
0.000240934
0.000228007
0.000224371
0.000226541
0.000232644
0.000248121
0.000280481
0.000361517
0.000551774
0.00123281
0.00339892
0.00626506
0.000839846
0.000949852
0.00104713
0.00103354
0.00100266
0.000968362
0.000956655
0.000964268
0.000984614
0.00103119
0.00107782
0.00117347
0.00125164
0.00141067
0.00153823
0.00185461
0.00233933
0.00346598
0.00590573
0.00784363
0.00427641
0.00677944
0.00839448
0.00898922
0.00915526
0.00917805
0.00917493
0.00918174
0.00919663
0.0092361
0.00927266
0.00934863
0.00942375
0.00952945
0.00967316
0.00981593
0.0099685
0.0101602
0.0107901
0.00974963
)
;

boundaryField
{
    movingWall
    {
        type            kqRWallFunction;
        value           nonuniform List<scalar> 
20
(
0.00427641
0.00677944
0.00839448
0.00898922
0.00915526
0.00917805
0.00917493
0.00918174
0.00919663
0.0092361
0.00927266
0.00934863
0.00942375
0.00952945
0.00967316
0.00981593
0.0099685
0.0101602
0.0107901
0.00974963
)
;
    }
    fixedWalls
    {
        type            kqRWallFunction;
        value           nonuniform List<scalar> 
60
(
0.000138411
0.00024632
0.0004411
0.000587013
0.000684888
0.000775371
0.000866634
0.000968292
0.00105738
0.00116101
0.00123175
0.00129711
0.00130189
0.00128061
0.00121115
0.00108912
0.000846878
0.000712814
0.000839846
0.00427641
0.000862851
0.00155323
0.00211777
0.0024723
0.00273445
0.0029342
0.00310093
0.00324414
0.00337822
0.0035082
0.00364463
0.00379452
0.00397065
0.00418588
0.00447203
0.00485997
0.00541114
0.00626506
0.00784363
0.00974963
0.000138411
0.000305143
0.000669045
0.00109295
0.00142307
0.0016322
0.00175411
0.00181017
0.00182869
0.00182339
0.00177074
0.00170676
0.00161615
0.00152668
0.00143172
0.00134518
0.00126903
0.00119373
0.00101608
0.000862851
)
;
    }
    frontAndBack
    {
        type            empty;
    }
}


// ************************************************************************* //
