/*--------------------------------*- C++ -*----------------------------------*\
| =========                 |                                                 |
| \\      /  F ield         | OpenFOAM: The Open Source CFD Toolbox           |
|  \\    /   O peration     | Version:  4.1                                   |
|   \\  /    A nd           | Web:      www.OpenFOAM.org                      |
|    \\/     M anipulation  |                                                 |
\*---------------------------------------------------------------------------*/
FoamFile
{
    version     2.0;
    format      ascii;
    class       volScalarField;
    location    "6";
    object      nut;
}
// * * * * * * * * * * * * * * * * * * * * * * * * * * * * * * * * * * * * * //

dimensions      [0 2 -1 0 0 0 0];

internalField   nonuniform List<scalar> 
400
(
6.61559e-06
9.81805e-06
1.45293e-05
1.85643e-05
2.11807e-05
2.26842e-05
2.35171e-05
2.38907e-05
2.40131e-05
2.39794e-05
2.36309e-05
2.32005e-05
2.25764e-05
2.19423e-05
2.12493e-05
2.05972e-05
2.00062e-05
1.94035e-05
1.7901e-05
1.64954e-05
8.82274e-06
1.64353e-05
2.02113e-05
2.06497e-05
2.1109e-05
1.89933e-05
1.83663e-05
1.78793e-05
1.85042e-05
1.97918e-05
2.09303e-05
2.21269e-05
2.38823e-05
2.48178e-05
2.68709e-05
2.8167e-05
2.89593e-05
2.85359e-05
2.58394e-05
2.21321e-05
1.18088e-05
2.14034e-05
2.13303e-05
2.11943e-05
1.67093e-05
1.63862e-05
1.66437e-05
1.7486e-05
1.82056e-05
1.85431e-05
1.85968e-05
1.82373e-05
1.80296e-05
1.80632e-05
1.8744e-05
2.02735e-05
2.24866e-05
2.54641e-05
2.74361e-05
2.58431e-05
1.36113e-05
2.23205e-05
2.19377e-05
1.75603e-05
1.60109e-05
1.63809e-05
1.75283e-05
1.83977e-05
1.86205e-05
1.83597e-05
1.80033e-05
1.75535e-05
1.62398e-05
1.55743e-05
1.51115e-05
1.59417e-05
1.83483e-05
2.20326e-05
2.71414e-05
2.79228e-05
1.46973e-05
2.34947e-05
2.04151e-05
1.60402e-05
1.62755e-05
1.74216e-05
1.93021e-05
2.04861e-05
2.18277e-05
2.24605e-05
2.25998e-05
2.24276e-05
2.02803e-05
1.8222e-05
1.57781e-05
1.44549e-05
1.58381e-05
1.9631e-05
2.57769e-05
2.93659e-05
1.56375e-05
2.4076e-05
1.87206e-05
1.5957e-05
1.69646e-05
1.89111e-05
2.18679e-05
2.45831e-05
2.78736e-05
2.9928e-05
3.08742e-05
3.13825e-05
2.85813e-05
2.48083e-05
1.98552e-05
1.56245e-05
1.47565e-05
1.81451e-05
2.54773e-05
3.04195e-05
1.653e-05
2.36495e-05
1.7679e-05
1.61032e-05
1.78639e-05
2.07106e-05
2.49887e-05
2.93908e-05
3.40786e-05
3.70927e-05
3.84936e-05
3.95016e-05
3.70544e-05
3.29457e-05
2.63757e-05
1.87818e-05
1.45751e-05
1.66558e-05
2.50345e-05
3.12715e-05
1.74736e-05
2.18283e-05
1.71838e-05
1.6412e-05
1.88023e-05
2.23264e-05
2.76502e-05
3.30944e-05
3.79255e-05
4.08767e-05
4.21066e-05
4.27235e-05
4.08398e-05
3.7521e-05
3.14084e-05
2.24234e-05
1.50913e-05
1.56642e-05
2.50211e-05
3.1985e-05
1.82582e-05
2.11331e-05
1.69272e-05
1.65076e-05
1.92252e-05
2.3413e-05
2.92633e-05
3.48737e-05
3.90369e-05
4.13402e-05
4.21569e-05
4.21813e-05
4.09812e-05
3.88085e-05
3.44004e-05
2.57965e-05
1.59412e-05
1.45453e-05
2.50447e-05
3.26386e-05
1.91329e-05
1.92948e-05
1.69025e-05
1.67907e-05
1.99711e-05
2.41853e-05
2.94982e-05
3.43497e-05
3.78206e-05
3.96188e-05
4.02437e-05
3.98633e-05
3.91013e-05
3.76226e-05
3.43978e-05
2.75965e-05
1.65166e-05
1.37468e-05
2.50979e-05
3.32597e-05
1.9708e-05
1.84843e-05
1.6693e-05
1.65193e-05
1.92601e-05
2.26903e-05
2.69926e-05
3.11958e-05
3.45044e-05
3.65122e-05
3.73844e-05
3.7268e-05
3.67178e-05
3.59101e-05
3.29639e-05
2.7856e-05
1.64797e-05
1.26495e-05
2.51361e-05
3.38991e-05
2.02243e-05
1.71175e-05
1.64954e-05
1.63648e-05
1.86761e-05
2.15785e-05
2.51401e-05
2.85867e-05
3.1498e-05
3.35502e-05
3.38875e-05
3.4014e-05
3.39727e-05
3.4248e-05
3.17377e-05
2.76346e-05
1.62364e-05
1.19187e-05
2.52407e-05
3.45878e-05
2.02657e-05
1.60454e-05
1.59758e-05
1.60221e-05
1.79743e-05
2.03411e-05
2.31582e-05
2.59785e-05
2.83157e-05
3.01357e-05
3.01907e-05
3.02357e-05
3.0285e-05
3.09573e-05
2.9307e-05
2.66249e-05
1.55555e-05
1.13933e-05
2.5242e-05
3.538e-05
2.01013e-05
1.60584e-05
1.52881e-05
1.54698e-05
1.70114e-05
1.86618e-05
2.03372e-05
2.2218e-05
2.39957e-05
2.57838e-05
2.60643e-05
2.67342e-05
2.71439e-05
2.85147e-05
2.66949e-05
2.37216e-05
1.41106e-05
1.05301e-05
2.53509e-05
3.63246e-05
1.95524e-05
1.64804e-05
1.47759e-05
1.4807e-05
1.58961e-05
1.72149e-05
1.83767e-05
1.93062e-05
2.03754e-05
2.18575e-05
2.24698e-05
2.3845e-05
2.44025e-05
2.59646e-05
2.36599e-05
1.98002e-05
1.17796e-05
9.82274e-06
2.59934e-05
3.75446e-05
1.85471e-05
1.76657e-05
1.52881e-05
1.4114e-05
1.45272e-05
1.56489e-05
1.65609e-05
1.7211e-05
1.80447e-05
1.94427e-05
2.00258e-05
2.13121e-05
2.13835e-05
2.1685e-05
1.87116e-05
1.43715e-05
9.00921e-06
9.69469e-06
2.74014e-05
3.91381e-05
1.63597e-05
1.7845e-05
1.67522e-05
1.58995e-05
1.4986e-05
1.4897e-05
1.51014e-05
1.52335e-05
1.53169e-05
1.57509e-05
1.57772e-05
1.57295e-05
1.51969e-05
1.40399e-05
1.13767e-05
8.45924e-06
6.77029e-06
1.05397e-05
2.97227e-05
4.12973e-05
1.5004e-05
1.79799e-05
1.75098e-05
1.62144e-05
1.49326e-05
1.34665e-05
1.20963e-05
1.08185e-05
9.57727e-06
8.44965e-06
7.79912e-06
7.10879e-06
6.69388e-06
6.17619e-06
6.01678e-06
6.36485e-06
8.06353e-06
1.46306e-05
3.41298e-05
4.44361e-05
1.62797e-05
1.43567e-05
1.38892e-05
1.29585e-05
1.21792e-05
1.13628e-05
1.09823e-05
1.08403e-05
1.08792e-05
1.12042e-05
1.16293e-05
1.26052e-05
1.34013e-05
1.51346e-05
1.64968e-05
1.90866e-05
2.21104e-05
2.90715e-05
4.4679e-05
4.97196e-05
3.67164e-05
4.62243e-05
5.14337e-05
5.32221e-05
5.37098e-05
5.37757e-05
5.3766e-05
5.37859e-05
5.38291e-05
5.39439e-05
5.40506e-05
5.42715e-05
5.44901e-05
5.47955e-05
5.52096e-05
5.56157e-05
5.6047e-05
5.65841e-05
5.83137e-05
5.54316e-05
)
;

boundaryField
{
    movingWall
    {
        type            nutkWallFunction;
        Cmu             0.09;
        kappa           0.41;
        E               9.8;
        value           nonuniform List<scalar> 
20
(
0
0
6.89979e-07
9.84055e-07
1.06414e-06
1.07507e-06
1.07357e-06
1.07684e-06
1.08397e-06
1.10283e-06
1.12026e-06
1.15636e-06
1.19189e-06
1.24161e-06
1.3087e-06
1.37478e-06
1.44479e-06
1.53187e-06
1.81158e-06
1.34416e-06
)
;
    }
    fixedWalls
    {
        type            nutkWallFunction;
        Cmu             0.09;
        kappa           0.41;
        E               9.8;
        value           nonuniform List<scalar> 
60
(
0
0
0
0
0
0
0
0
0
0
0
0
0
0
0
0
0
0
0
0
0
0
0
0
0
0
0
0
0
0
0
0
0
0
0
0
0
0
4.06686e-07
1.34416e-06
0
0
0
0
0
0
0
0
0
0
0
0
0
0
0
0
0
0
0
0
)
;
    }
    frontAndBack
    {
        type            empty;
    }
}


// ************************************************************************* //
