/*--------------------------------*- C++ -*----------------------------------*\
| =========                 |                                                 |
| \\      /  F ield         | OpenFOAM: The Open Source CFD Toolbox           |
|  \\    /   O peration     | Version:  4.1                                   |
|   \\  /    A nd           | Web:      www.OpenFOAM.org                      |
|    \\/     M anipulation  |                                                 |
\*---------------------------------------------------------------------------*/
FoamFile
{
    version     2.0;
    format      ascii;
    class       volScalarField;
    location    "6";
    object      p;
}
// * * * * * * * * * * * * * * * * * * * * * * * * * * * * * * * * * * * * * //

dimensions      [0 2 -2 0 0 0 0];

internalField   nonuniform List<scalar> 
400
(
4.59687e-08
-0.000103848
-0.000255656
-0.000767011
-0.00188278
-0.00354316
-0.00542914
-0.00720425
-0.00863358
-0.0096097
-0.010052
-0.0098861
-0.00903174
-0.00739778
-0.00491391
-0.00163776
0.00215024
0.00572558
0.00808139
0.0087714
0.000153939
-9.21563e-06
-0.000369001
-0.00121005
-0.00262199
-0.00443562
-0.00632546
-0.00802768
-0.00940109
-0.0103279
-0.0107414
-0.0106094
-0.00990526
-0.00850806
-0.00632893
-0.00335272
0.000243786
0.00390479
0.0065924
0.00768834
0.000135565
-0.000245299
-0.00101341
-0.00232877
-0.00413001
-0.00610686
-0.00797618
-0.00960142
-0.0108802
-0.0116895
-0.0120313
-0.0119071
-0.011296
-0.0101574
-0.00840253
-0.00594584
-0.00279536
0.000765573
0.00378392
0.00530304
-0.000404578
-0.00101881
-0.00222073
-0.00400549
-0.00610065
-0.00814581
-0.00993103
-0.0113419
-0.0123263
-0.0129191
-0.0131467
-0.0130109
-0.0125071
-0.0116172
-0.0102904
-0.00843015
-0.00592714
-0.00279269
0.000235855
0.00190398
-0.00158311
-0.00237963
-0.00388648
-0.00594871
-0.00810635
-0.0100126
-0.0115474
-0.0126929
-0.0134657
-0.01391
-0.014049
-0.013897
-0.013467
-0.0127605
-0.0117583
-0.0103964
-0.00854167
-0.00604886
-0.00331228
-0.00170463
-0.0032745
-0.00413078
-0.00574061
-0.00782442
-0.00984704
-0.0115152
-0.0127924
-0.0137223
-0.0143487
-0.0147019
-0.014797
-0.0146514
-0.0142782
-0.0136931
-0.0129
-0.0118745
-0.0105499
-0.00869059
-0.00650119
-0.00499907
-0.00510548
-0.00593921
-0.007499
-0.00945024
-0.0112501
-0.0126782
-0.0137503
-0.0145333
-0.0150639
-0.0153627
-0.0154396
-0.0153083
-0.0149814
-0.0144795
-0.0138219
-0.0130068
-0.0120403
-0.0106772
-0.00905691
-0.00773331
-0.00674724
-0.0075089
-0.00894935
-0.0107315
-0.0123173
-0.013552
-0.0144803
-0.0151657
-0.0156328
-0.0158961
-0.0159634
-0.0158456
-0.015555
-0.0151122
-0.0145451
-0.0138566
-0.0131192
-0.0120935
-0.0109617
-0.00981898
-0.00797457
-0.00867877
-0.00999416
-0.0116353
-0.0130614
-0.0141655
-0.0150028
-0.0156264
-0.016053
-0.0162935
-0.0163553
-0.0162475
-0.0159823
-0.0155772
-0.0150681
-0.0144413
-0.0138608
-0.0130254
-0.0122294
-0.011271
-0.00872017
-0.00935669
-0.0105864
-0.0121423
-0.0134796
-0.0145209
-0.0153152
-0.0159081
-0.0163143
-0.0165436
-0.0166035
-0.0165023
-0.0162522
-0.015862
-0.0153891
-0.0147547
-0.0143012
-0.0134961
-0.0129839
-0.0121087
-0.00894818
-0.00954967
-0.0107263
-0.0122451
-0.0135671
-0.0146125
-0.0154102
-0.0160032
-0.0164092
-0.0166394
-0.0167014
-0.0166027
-0.0163566
-0.0159544
-0.0155024
-0.0147941
-0.0144359
-0.0135251
-0.013294
-0.0123373
-0.00866991
-0.00926538
-0.0104195
-0.0119378
-0.0133124
-0.0144214
-0.0152723
-0.0159013
-0.0163317
-0.0165767
-0.0166454
-0.0165439
-0.0162837
-0.0158652
-0.0153551
-0.014613
-0.0141951
-0.0131798
-0.0131777
-0.0119488
-0.00799389
-0.00859046
-0.00972816
-0.0112291
-0.0127143
-0.0139372
-0.0148879
-0.0155919
-0.0160748
-0.0163517
-0.0164328
-0.0163223
-0.0160332
-0.0155638
-0.0149644
-0.0141656
-0.0135756
-0.0125078
-0.0125854
-0.0110052
-0.00706789
-0.00761258
-0.00870028
-0.0101557
-0.0117432
-0.0131181
-0.0142182
-0.0150462
-0.0156196
-0.0159516
-0.0160545
-0.0159295
-0.0155924
-0.0150394
-0.014322
-0.0134061
-0.0126006
-0.0114963
-0.0115424
-0.00968035
-0.00609065
-0.00650229
-0.0074434
-0.00879741
-0.010407
-0.0119375
-0.0132294
-0.0142333
-0.0149421
-0.0153583
-0.0154965
-0.0153564
-0.0149561
-0.0142927
-0.0134243
-0.0123361
-0.0113083
-0.0101254
-0.0101034
-0.00804938
-0.00523222
-0.005371
-0.00604859
-0.00720587
-0.00874098
-0.010384
-0.0118879
-0.0131119
-0.0140037
-0.0145429
-0.0147401
-0.0145969
-0.0141375
-0.0133568
-0.0123157
-0.0110271
-0.00975253
-0.00837961
-0.00822965
-0.00576086
-0.00465327
-0.00445154
-0.00471714
-0.00554264
-0.00690118
-0.00857454
-0.0102615
-0.011718
-0.0128326
-0.0135436
-0.0138508
-0.0137478
-0.0132577
-0.0123724
-0.0111555
-0.00963147
-0.00801228
-0.00621951
-0.00547938
-0.00119164
-0.00422035
-0.00364801
-0.00349166
-0.00392964
-0.00508048
-0.00674701
-0.0085696
-0.0102095
-0.01152
-0.0124083
-0.0128478
-0.0128207
-0.0123472
-0.0114273
-0.0100751
-0.00827868
-0.0061268
-0.00340395
-0.000665925
0.00867246
-0.0055054
-0.00372659
-0.00284683
-0.00282639
-0.00379354
-0.00545045
-0.0073636
-0.00915625
-0.0106192
-0.0116555
-0.012216
-0.0122931
-0.0118617
-0.0109144
-0.00937683
-0.00714216
-0.00407438
0.00052847
0.00713801
0.0243883
-0.000816018
0.000766538
-7.81141e-05
-0.0012155
-0.00269051
-0.00454572
-0.00657391
-0.00850139
-0.0100787
-0.0111959
-0.0117878
-0.0118466
-0.0113386
-0.0102433
-0.0084799
-0.00586794
-0.00148004
0.00569647
0.0169264
0.0359224
)
;

boundaryField
{
    movingWall
    {
        type            zeroGradient;
    }
    fixedWalls
    {
        type            zeroGradient;
    }
    frontAndBack
    {
        type            empty;
    }
}


// ************************************************************************* //
