/*--------------------------------*- C++ -*----------------------------------*\
| =========                 |                                                 |
| \\      /  F ield         | OpenFOAM: The Open Source CFD Toolbox           |
|  \\    /   O peration     | Version:  4.1                                   |
|   \\  /    A nd           | Web:      www.OpenFOAM.org                      |
|    \\/     M anipulation  |                                                 |
\*---------------------------------------------------------------------------*/
FoamFile
{
    version     2.0;
    format      ascii;
    class       surfaceScalarField;
    location    "6";
    object      phi;
}
// * * * * * * * * * * * * * * * * * * * * * * * * * * * * * * * * * * * * * //

dimensions      [0 3 -1 0 0 0 0];

internalField   nonuniform List<scalar> 
760
(
-2.66548e-08
2.66503e-08
-4.78621e-07
4.51966e-07
-1.41456e-06
9.35935e-07
-2.69327e-06
1.27871e-06
-4.04099e-06
1.34772e-06
-5.30249e-06
1.2615e-06
-6.3832e-06
1.08071e-06
-7.24988e-06
8.66677e-07
-7.88416e-06
6.34283e-07
-8.32738e-06
4.43223e-07
-8.5731e-06
2.45722e-07
-8.64092e-06
6.78158e-08
-8.50297e-06
-1.37948e-07
-8.15908e-06
-3.43887e-07
-7.52438e-06
-6.347e-07
-6.54045e-06
-9.83931e-07
-5.12746e-06
-1.413e-06
-3.32497e-06
-1.80248e-06
-1.42726e-06
-1.89771e-06
-1.42726e-06
-6.1613e-07
6.4278e-07
-1.64132e-06
1.47716e-06
-2.94544e-06
2.24005e-06
-4.26788e-06
2.60116e-06
-5.48673e-06
2.56657e-06
-6.51753e-06
2.2923e-06
-7.3336e-06
1.89678e-06
-7.95199e-06
1.48506e-06
-8.41242e-06
1.09471e-06
-8.69847e-06
7.29272e-07
-8.81946e-06
3.66716e-07
-8.74321e-06
-8.43109e-09
-8.55358e-06
-3.27578e-07
-8.183e-06
-7.14466e-07
-7.60711e-06
-1.21059e-06
-6.73978e-06
-1.85127e-06
-5.50453e-06
-2.64825e-06
-3.8317e-06
-3.47531e-06
-1.85526e-06
-3.87416e-06
-3.28252e-06
-1.06098e-06
1.70376e-06
-2.34846e-06
2.76464e-06
-3.62791e-06
3.5195e-06
-4.76896e-06
3.7422e-06
-5.71341e-06
3.51102e-06
-6.42983e-06
3.00872e-06
-6.94557e-06
2.41252e-06
-7.26042e-06
1.79991e-06
-7.42379e-06
1.25808e-06
-7.44955e-06
7.55034e-07
-7.4015e-06
3.18666e-07
-7.30604e-06
-1.03888e-07
-7.11575e-06
-5.1787e-07
-6.82684e-06
-1.00338e-06
-6.42611e-06
-1.61131e-06
-5.84394e-06
-2.43344e-06
-4.9716e-06
-3.52058e-06
-3.6634e-06
-4.78352e-06
-1.9446e-06
-5.59295e-06
-5.22712e-06
-1.23428e-06
2.93805e-06
-2.50739e-06
4.03775e-06
-3.61975e-06
4.63186e-06
-4.51345e-06
4.63591e-06
-5.13211e-06
4.12968e-06
-5.48705e-06
3.36366e-06
-5.64365e-06
2.56911e-06
-5.68259e-06
1.83885e-06
-5.66709e-06
1.24258e-06
-5.62552e-06
7.13465e-07
-5.55021e-06
2.43351e-07
-5.44235e-06
-2.11741e-07
-5.2829e-06
-6.77322e-07
-5.0804e-06
-1.20588e-06
-4.82641e-06
-1.8653e-06
-4.4985e-06
-2.76135e-06
-4.00788e-06
-4.01121e-06
-3.11909e-06
-5.6723e-06
-1.74734e-06
-6.9647e-06
-6.97446e-06
-1.14559e-06
4.08364e-06
-2.24788e-06
5.14004e-06
-3.14609e-06
5.53007e-06
-3.76993e-06
5.25975e-06
-4.10327e-06
4.46303e-06
-4.23361e-06
3.494e-06
-4.27153e-06
2.60703e-06
-4.28204e-06
1.84936e-06
-4.2602e-06
1.22074e-06
-4.20872e-06
6.61983e-07
-4.12256e-06
1.57185e-07
-3.99557e-06
-3.3873e-07
-3.82958e-06
-8.43314e-07
-3.63518e-06
-1.40028e-06
-3.42829e-06
-2.07219e-06
-3.21861e-06
-2.97103e-06
-2.96548e-06
-4.26434e-06
-2.43533e-06
-6.20245e-06
-1.44002e-06
-7.96002e-06
-8.41448e-06
-9.41494e-07
5.02513e-06
-1.82105e-06
6.0196e-06
-2.49205e-06
6.20107e-06
-2.91308e-06
5.68077e-06
-3.10269e-06
4.65264e-06
-3.18032e-06
3.57163e-06
-3.21874e-06
2.64545e-06
-3.24828e-06
1.8789e-06
-3.25602e-06
1.22849e-06
-3.23445e-06
6.4041e-07
-3.16961e-06
9.2343e-08
-3.06089e-06
-4.47445e-07
-2.90245e-06
-1.00176e-06
-2.70056e-06
-1.60217e-06
-2.47775e-06
-2.295e-06
-2.2739e-06
-3.17488e-06
-2.1237e-06
-4.41454e-06
-1.87606e-06
-6.45008e-06
-1.13498e-06
-8.7011e-06
-9.54946e-06
-7.06444e-07
5.73158e-06
-1.34091e-06
6.65406e-06
-1.82153e-06
6.68169e-06
-2.11045e-06
5.96969e-06
-2.2478e-06
4.78999e-06
-2.32271e-06
3.64654e-06
-2.38236e-06
2.70509e-06
-2.4327e-06
1.92924e-06
-2.45948e-06
1.25527e-06
-2.45589e-06
6.36813e-07
-2.4124e-06
4.88515e-08
-2.32728e-06
-5.32565e-07
-2.19626e-06
-1.13277e-06
-2.02093e-06
-1.7775e-06
-1.8165e-06
-2.49943e-06
-1.60833e-06
-3.38305e-06
-1.46233e-06
-4.56054e-06
-1.34252e-06
-6.56989e-06
-9.03281e-07
-9.14034e-06
-1.04527e-05
-4.46913e-07
6.17849e-06
-8.77765e-07
7.08491e-06
-1.20603e-06
7.00996e-06
-1.40811e-06
6.17177e-06
-1.52172e-06
4.9036e-06
-1.60008e-06
3.7249e-06
-1.66914e-06
2.77415e-06
-1.72524e-06
1.98534e-06
-1.75841e-06
1.28844e-06
-1.76492e-06
6.43327e-07
-1.74009e-06
2.40234e-08
-1.68217e-06
-5.9049e-07
-1.58805e-06
-1.22689e-06
-1.45579e-06
-1.90976e-06
-1.29443e-06
-2.66079e-06
-1.1218e-06
-3.55568e-06
-1.00541e-06
-4.67693e-06
-9.46516e-07
-6.62879e-06
-6.88125e-07
-9.39873e-06
-1.11409e-05
-2.21703e-07
6.40019e-06
-4.51554e-07
7.31476e-06
-6.4265e-07
7.20106e-06
-7.77927e-07
6.30705e-06
-8.73681e-07
4.99935e-06
-9.53018e-07
3.80424e-06
-1.02026e-06
2.8414e-06
-1.07185e-06
2.03692e-06
-1.1052e-06
1.32179e-06
-1.11974e-06
6.57861e-07
-1.11483e-06
1.9111e-08
-1.08726e-06
-6.18061e-07
-1.03531e-06
-1.27884e-06
-9.52721e-07
-1.99235e-06
-8.44759e-07
-2.76875e-06
-7.1682e-07
-3.68362e-06
-6.36634e-07
-4.75711e-06
-6.1304e-07
-6.65238e-06
-5.35565e-07
-9.47621e-06
-1.16764e-05
2.01629e-08
6.38003e-06
-6.31229e-08
7.39805e-06
-1.37099e-07
7.27503e-06
-2.08015e-07
6.37797e-06
-2.77155e-07
5.06849e-06
-3.46002e-07
3.87309e-06
-4.0225e-07
2.89765e-06
-4.45001e-07
2.07968e-06
-4.77028e-07
1.35382e-06
-4.99956e-07
6.8079e-07
-5.1444e-07
3.35952e-08
-5.18096e-07
-6.14405e-07
-5.10195e-07
-1.28674e-06
-4.77344e-07
-2.0252e-06
-4.36445e-07
-2.80965e-06
-3.71715e-07
-3.74835e-06
-3.49599e-07
-4.77923e-06
-3.84348e-07
-6.61763e-06
-4.06036e-07
-9.45452e-06
-1.20825e-05
2.25325e-07
6.1547e-06
3.42283e-07
7.28109e-06
4.03743e-07
7.21357e-06
3.74778e-07
6.40693e-06
3.20337e-07
5.12293e-06
2.61121e-07
3.9323e-06
2.12488e-07
2.94628e-06
1.75208e-07
2.11696e-06
1.43212e-07
1.38582e-06
1.12236e-07
7.11766e-07
8.02898e-08
6.55412e-08
4.83592e-08
-5.82474e-07
2.14112e-08
-1.25979e-06
-1.90228e-08
-1.98476e-06
1.85007e-09
-2.83053e-06
-6.12618e-08
-3.68524e-06
-4.29252e-08
-4.79756e-06
-1.89096e-07
-6.47146e-06
-3.18308e-07
-9.32531e-06
-1.24008e-05
4.3942e-07
5.71528e-06
7.20652e-07
6.99986e-06
9.20063e-07
7.01416e-06
9.55987e-07
6.37101e-06
9.19686e-07
5.15923e-06
8.71644e-07
3.98035e-06
8.34451e-07
2.98347e-06
8.05968e-07
2.14544e-06
7.7648e-07
1.4153e-06
7.39089e-07
7.49157e-07
6.90733e-07
1.13897e-07
6.31326e-07
-5.23067e-07
5.60895e-07
-1.18936e-06
4.92549e-07
-1.91642e-06
4.00606e-07
-2.73858e-06
3.14541e-07
-3.59917e-06
2.00556e-07
-4.68358e-06
-4.51599e-08
-6.22575e-06
-2.21988e-07
-9.14848e-06
-1.26228e-05
6.32825e-07
5.08246e-06
1.09483e-06
6.53785e-06
1.43071e-06
6.67828e-06
1.58231e-06
6.2194e-06
1.59413e-06
5.14741e-06
1.56524e-06
4.00924e-06
1.53359e-06
3.01512e-06
1.50403e-06
2.175e-06
1.46875e-06
1.45058e-06
1.42126e-06
7.9665e-07
1.35604e-06
1.79118e-07
1.27176e-06
-4.38788e-07
1.16647e-06
-1.08406e-06
1.04102e-06
-1.79097e-06
8.77356e-07
-2.57492e-06
7.1982e-07
-3.44164e-06
4.79577e-07
-4.44334e-06
1.7948e-07
-5.92565e-06
-7.66885e-08
-8.89231e-06
-1.26994e-05
7.95627e-07
4.28683e-06
1.4272e-06
5.90628e-06
1.89467e-06
6.21081e-06
2.19355e-06
5.92053e-06
2.29547e-06
5.04549e-06
2.31199e-06
3.99272e-06
2.30134e-06
3.02576e-06
2.2822e-06
2.19414e-06
2.25066e-06
1.48211e-06
2.20069e-06
8.46629e-07
2.12323e-06
2.5658e-07
2.01491e-06
-3.30477e-07
1.86907e-06
-9.38217e-07
1.68237e-06
-1.60428e-06
1.44224e-06
-2.33479e-06
1.17449e-06
-3.17388e-06
8.0509e-07
-4.07394e-06
4.23747e-07
-5.54431e-06
8.03991e-08
-8.54896e-06
-1.26191e-05
8.81992e-07
3.40484e-06
1.68951e-06
5.09877e-06
2.33083e-06
5.56949e-06
2.81479e-06
5.43657e-06
3.08214e-06
4.77814e-06
3.20327e-06
3.87159e-06
3.24695e-06
2.98209e-06
3.25039e-06
2.1907e-06
3.22292e-06
1.50959e-06
3.16445e-06
9.05096e-07
3.06422e-06
3.56816e-07
2.91614e-06
-1.82404e-07
2.71396e-06
-7.36038e-07
2.45304e-06
-1.34335e-06
2.11129e-06
-1.99303e-06
1.70277e-06
-2.76537e-06
1.18489e-06
-3.55606e-06
6.86878e-07
-5.04629e-06
2.22442e-07
-8.08453e-06
-1.23966e-05
8.97153e-07
2.50769e-06
1.77726e-06
4.21866e-06
2.5749e-06
4.77185e-06
3.25407e-06
4.7574e-06
3.74363e-06
4.28857e-06
4.05013e-06
3.56509e-06
4.22167e-06
2.81054e-06
4.30253e-06
2.10984e-06
4.31447e-06
1.49765e-06
4.26753e-06
9.52028e-07
4.15732e-06
4.67029e-07
3.98041e-06
-5.49216e-09
3.71678e-06
-4.72411e-07
3.36731e-06
-9.93883e-07
2.89608e-06
-1.5218e-06
2.31152e-06
-2.18081e-06
1.61917e-06
-2.8637e-06
9.67276e-07
-4.3944e-06
3.83123e-07
-7.50037e-06
-1.20135e-05
6.50878e-07
1.85681e-06
1.68193e-06
3.18761e-06
2.66776e-06
3.78603e-06
3.57265e-06
3.8525e-06
4.32035e-06
3.54087e-06
4.8674e-06
3.01804e-06
5.23136e-06
2.44659e-06
5.45031e-06
1.89089e-06
5.54316e-06
1.4048e-06
5.53939e-06
9.5579e-07
5.42926e-06
5.77165e-07
5.21924e-06
2.04524e-07
4.87405e-06
-1.27221e-07
4.42095e-06
-5.40778e-07
3.79739e-06
-8.98241e-07
3.03073e-06
-1.41415e-06
2.17456e-06
-2.00753e-06
1.36918e-06
-3.58902e-06
5.84782e-07
-6.71598e-06
-1.14287e-05
1.7055e-07
1.68626e-06
1.08635e-06
2.27181e-06
2.19058e-06
2.6818e-06
3.32643e-06
2.71665e-06
4.3408e-06
2.5265e-06
5.15835e-06
2.20049e-06
5.75738e-06
1.84756e-06
6.16654e-06
1.48173e-06
6.39315e-06
1.1782e-06
6.47905e-06
8.69892e-07
6.41023e-06
6.4598e-07
6.23586e-06
3.78896e-07
5.91475e-06
1.93893e-07
5.46455e-06
-9.05801e-08
4.8339e-06
-2.67592e-07
4.08837e-06
-6.68622e-07
3.24847e-06
-1.16762e-06
2.34733e-06
-2.68788e-06
1.1144e-06
-5.48305e-06
-1.03143e-05
-5.65534e-07
2.25179e-06
2.55342e-07
1.45093e-06
1.65011e-06
1.28703e-06
3.08107e-06
1.28569e-06
4.34533e-06
1.26224e-06
5.39229e-06
1.15353e-06
6.22134e-06
1.01851e-06
6.85066e-06
8.52404e-07
7.30707e-06
7.21788e-07
7.59859e-06
5.78377e-07
7.77046e-06
4.74113e-07
7.80274e-06
3.46613e-07
7.7396e-06
2.57029e-07
7.52041e-06
1.28611e-07
7.22279e-06
3.0033e-08
6.79081e-06
-2.36643e-07
6.17556e-06
-5.52381e-07
5.07642e-06
-1.58874e-06
2.81588e-06
-3.22252e-06
-7.49842e-06
2.25179e-06
3.70272e-06
4.98975e-06
6.27545e-06
7.53769e-06
8.69122e-06
9.70973e-06
1.05621e-05
1.12839e-05
1.18623e-05
1.23364e-05
1.2683e-05
1.29401e-05
1.30687e-05
1.30987e-05
1.28621e-05
1.23097e-05
1.07209e-05
7.49842e-06
)
;

boundaryField
{
    movingWall
    {
        type            calculated;
        value           uniform 0;
    }
    fixedWalls
    {
        type            calculated;
        value           uniform 0;
    }
    frontAndBack
    {
        type            empty;
        value           nonuniform 0();
    }
}


// ************************************************************************* //
