/*--------------------------------*- C++ -*----------------------------------*\
| =========                 |                                                 |
| \\      /  F ield         | OpenFOAM: The Open Source CFD Toolbox           |
|  \\    /   O peration     | Version:  4.1                                   |
|   \\  /    A nd           | Web:      www.OpenFOAM.org                      |
|    \\/     M anipulation  |                                                 |
\*---------------------------------------------------------------------------*/
FoamFile
{
    version     2.0;
    format      ascii;
    class       volVectorField;
    location    "6";
    object      U;
}
// * * * * * * * * * * * * * * * * * * * * * * * * * * * * * * * * * * * * * //

dimensions      [0 1 -1 0 0 0 0];

internalField   nonuniform List<vector> 
400
(
(0.00155774 -0.00296075 0)
(-0.00278808 0.00188636 0)
(-0.0148059 0.00767932 0)
(-0.0396448 0.0138329 0)
(-0.0690151 0.015091 0)
(-0.0961884 0.0136226 0)
(-0.119918 0.0116961 0)
(-0.138662 0.00944353 0)
(-0.153131 0.00746243 0)
(-0.16356 0.00527952 0)
(-0.170373 0.00337354 0)
(-0.173429 0.00152472 0)
(-0.173552 -0.00111114 0)
(-0.167815 -0.00347086 0)
(-0.15753 -0.00723602 0)
(-0.139637 -0.0111374 0)
(-0.114847 -0.0158825 0)
(-0.0821666 -0.0190886 0)
(-0.0466255 -0.0182468 0)
(-0.0151819 -0.0101416 0)
(-0.00470718 0.00443502 0)
(-0.0195108 0.0179709 0)
(-0.0437512 0.0321765 0)
(-0.0727237 0.0392298 0)
(-0.10022 0.0392862 0)
(-0.123176 0.0356345 0)
(-0.141119 0.0302175 0)
(-0.154129 0.0244362 0)
(-0.165415 0.0173064 0)
(-0.172001 0.011837 0)
(-0.176415 0.0059743 0)
(-0.176822 0.000796 0)
(-0.174687 -0.0053315 0)
(-0.168801 -0.0121036 0)
(-0.158825 -0.0209494 0)
(-0.143098 -0.0318118 0)
(-0.120978 -0.0446578 0)
(-0.0912977 -0.0564789 0)
(-0.0569182 -0.0595056 0)
(-0.0206998 -0.0450205 0)
(-0.00994342 0.0231749 0)
(-0.0323427 0.0429927 0)
(-0.0597611 0.0579752 0)
(-0.0862434 0.063303 0)
(-0.108177 0.0604262 0)
(-0.124041 0.0526525 0)
(-0.135245 0.0423428 0)
(-0.143881 0.0318098 0)
(-0.148011 0.0231232 0)
(-0.148919 0.0143961 0)
(-0.149001 0.00651055 0)
(-0.147357 -0.00150799 0)
(-0.145545 -0.00974795 0)
(-0.140557 -0.0193551 0)
(-0.133996 -0.0313999 0)
(-0.123005 -0.0473544 0)
(-0.107322 -0.067342 0)
(-0.0841878 -0.0886754 0)
(-0.0558266 -0.100306 0)
(-0.0215051 -0.0893355 0)
(-0.0124655 0.0464344 0)
(-0.0372811 0.0684105 0)
(-0.0629652 0.0813448 0)
(-0.0848392 0.0831619 0)
(-0.0997883 0.0758573 0)
(-0.108423 0.063237 0)
(-0.112794 0.0497505 0)
(-0.11378 0.0367983 0)
(-0.112941 0.0252088 0)
(-0.113249 0.0148899 0)
(-0.111686 0.00588322 0)
(-0.110284 -0.00282061 0)
(-0.10763 -0.0116162 0)
(-0.104534 -0.0219732 0)
(-0.10029 -0.0351522 0)
(-0.0946025 -0.0534405 0)
(-0.0852686 -0.0784919 0)
(-0.0691213 -0.108747 0)
(-0.0483628 -0.129789 0)
(-0.019056 -0.126585 0)
(-0.0121204 0.0693047 0)
(-0.0346797 0.0906836 0)
(-0.0569402 0.100745 0)
(-0.0730291 0.0984113 0)
(-0.0815657 0.0858136 0)
(-0.0844301 0.0689356 0)
(-0.0852448 0.052442 0)
(-0.0852518 0.0376083 0)
(-0.0852704 0.0251384 0)
(-0.0847328 0.0141156 0)
(-0.0833329 0.00427066 0)
(-0.0812938 -0.00513761 0)
(-0.0783928 -0.0145869 0)
(-0.0750226 -0.0251404 0)
(-0.0713829 -0.0382452 0)
(-0.0676631 -0.0564497 0)
(-0.0631097 -0.0833809 0)
(-0.0519719 -0.12173 0)
(-0.0389286 -0.152285 0)
(-0.0159936 -0.157396 0)
(-0.00966587 0.0899261 0)
(-0.0290195 0.111188 0)
(-0.0461793 0.116949 0)
(-0.0576583 0.109279 0)
(-0.0619844 0.0913722 0)
(-0.0628082 0.0711812 0)
(-0.0636307 0.0529607 0)
(-0.0643845 0.0375329 0)
(-0.065055 0.0245896 0)
(-0.0649461 0.0129685 0)
(-0.0641597 0.00231014 0)
(-0.0624127 -0.00811439 0)
(-0.0597452 -0.018714 0)
(-0.0562114 -0.0301234 0)
(-0.0521338 -0.0433484 0)
(-0.0479789 -0.0605289 0)
(-0.045438 -0.0857549 0)
(-0.0374617 -0.127027 0)
(-0.0326248 -0.168666 0)
(-0.00930261 -0.181737 0)
(-0.00749119 0.10709 0)
(-0.0217046 0.126078 0)
(-0.0342909 0.128115 0)
(-0.0422869 0.11622 0)
(-0.0444484 0.0946017 0)
(-0.0452033 0.0724552 0)
(-0.0467179 0.0536756 0)
(-0.0479999 0.0381417 0)
(-0.0489931 0.0248145 0)
(-0.0492383 0.0126845 0)
(-0.0488154 0.00128389 0)
(-0.0475057 -0.0100171 0)
(-0.0453095 -0.0216324 0)
(-0.0422557 -0.034107 0)
(-0.0385475 -0.0481606 0)
(-0.0340283 -0.065505 0)
(-0.0324891 -0.0891415 0)
(-0.0245729 -0.129639 0)
(-0.0260459 -0.179618 0)
(-0.00640951 -0.201314 0)
(-0.00440599 0.119082 0)
(-0.0141332 0.137843 0)
(-0.0229932 0.137441 0)
(-0.0283714 0.12182 0)
(-0.0295592 0.0972085 0)
(-0.0306517 0.0738936 0)
(-0.0324923 0.0548617 0)
(-0.0338849 0.0391517 0)
(-0.0349123 0.0253841 0)
(-0.0353138 0.012701 0)
(-0.0351488 0.000604861 0)
(-0.0342996 -0.0114399 0)
(-0.0327367 -0.0238579 0)
(-0.030449 -0.0371573 0)
(-0.0277142 -0.0518313 0)
(-0.023279 -0.0695121 0)
(-0.0234345 -0.0919969 0)
(-0.015276 -0.131719 0)
(-0.0217334 -0.185782 0)
(-0.00227094 -0.216566 0)
(-0.00237039 0.126848 0)
(-0.00703799 0.144127 0)
(-0.0124141 0.142034 0)
(-0.0156677 0.124596 0)
(-0.0164726 0.0989077 0)
(-0.0178213 0.075207 0)
(-0.0196448 0.0561336 0)
(-0.0208981 0.0402191 0)
(-0.0218173 0.0260699 0)
(-0.0222926 0.0129334 0)
(-0.0223923 0.000314228 0)
(-0.0220477 -0.0122835 0)
(-0.0212304 -0.0253203 0)
(-0.0198067 -0.0393563 0)
(-0.0184552 -0.0545994 0)
(-0.014134 -0.0727515 0)
(-0.0162816 -0.0943057 0)
(-0.00751411 -0.132883 0)
(-0.0182633 -0.188656 0)
(-6.24317e-05 -0.228751 0)
(0.00123002 0.128788 0)
(-0.000524911 0.148607 0)
(-0.00254795 0.146068 0)
(-0.00409621 0.127631 0)
(-0.00471442 0.101065 0)
(-0.00596873 0.0769659 0)
(-0.00745045 0.0574934 0)
(-0.00844126 0.0412167 0)
(-0.00922274 0.0267615 0)
(-0.00976464 0.0133427 0)
(-0.0101374 0.000426932 0)
(-0.0103008 -0.0124855 0)
(-0.0102941 -0.0258895 0)
(-0.00965247 -0.0404457 0)
(-0.0100208 -0.0561777 0)
(-0.00597557 -0.0745349 0)
(-0.0106955 -0.0959587 0)
(-0.00131421 -0.132669 0)
(-0.0160984 -0.189514 0)
(0.00275901 -0.238144 0)
(0.00325941 0.126567 0)
(0.00561297 0.147554 0)
(0.00698837 0.145254 0)
(0.00726661 0.127463 0)
(0.00707435 0.101653 0)
(0.00604362 0.0777236 0)
(0.00477772 0.0582102 0)
(0.0039228 0.041861 0)
(0.00321699 0.0273499 0)
(0.00260017 0.0138787 0)
(0.00196661 0.000902076 0)
(0.00135134 -0.0121064 0)
(0.000545816 -0.0256615 0)
(0.000519163 -0.0403868 0)
(-0.00153765 -0.0568099 0)
(0.00190565 -0.0745958 0)
(-0.00537225 -0.0963941 0)
(0.00466179 -0.130568 0)
(-0.0144362 -0.188341 0)
(0.00477963 -0.245206 0)
(0.00563347 0.120909 0)
(0.01152 0.145154 0)
(0.0159767 0.144264 0)
(0.0182738 0.129217 0)
(0.0187483 0.103286 0)
(0.0181639 0.0793984 0)
(0.0172131 0.0594246 0)
(0.0165319 0.0426676 0)
(0.0159307 0.0280036 0)
(0.0152686 0.0145611 0)
(0.0143931 0.00170391 0)
(0.0133887 -0.0112069 0)
(0.0119297 -0.0247181 0)
(0.0110579 -0.039333 0)
(0.00776394 -0.0560696 0)
(0.0101394 -0.0734521 0)
(0.000184182 -0.0952465 0)
(0.0102993 -0.127246 0)
(-0.013506 -0.185318 0)
(0.0077944 -0.249905 0)
(0.00769439 0.10989 0)
(0.0170018 0.136502 0)
(0.0252764 0.13711 0)
(0.029442 0.126329 0)
(0.0316825 0.102555 0)
(0.0318381 0.0790797 0)
(0.0312299 0.0592894 0)
(0.0305748 0.0427131 0)
(0.0298814 0.0283357 0)
(0.029064 0.0152414 0)
(0.0278761 0.00276932 0)
(0.0265687 -0.00980298 0)
(0.0243489 -0.0229722 0)
(0.0228634 -0.0373941 0)
(0.018119 -0.0535626 0)
(0.0191706 -0.0710313 0)
(0.00680799 -0.0915113 0)
(0.016129 -0.12188 0)
(-0.0120305 -0.180195 0)
(0.0111499 -0.25265 0)
(0.0100632 0.0962015 0)
(0.0219068 0.12772 0)
(0.033483 0.131687 0)
(0.0401515 0.123599 0)
(0.0445785 0.103784 0)
(0.0461575 0.0809414 0)
(0.0463566 0.060776 0)
(0.0460858 0.0437953 0)
(0.0455235 0.0293224 0)
(0.0447737 0.0163736 0)
(0.0433361 0.00425909 0)
(0.0418742 -0.00783972 0)
(0.0387444 -0.0204182 0)
(0.0366749 -0.0341873 0)
(0.030206 -0.049435 0)
(0.0297549 -0.0665209 0)
(0.0145973 -0.085488 0)
(0.0221197 -0.115473 0)
(-0.0100483 -0.174647 0)
(0.0156756 -0.254092 0)
(0.0107467 0.0775899 0)
(0.0256796 0.110373 0)
(0.040512 0.118366 0)
(0.0508431 0.114163 0)
(0.0584454 0.0988135 0)
(0.0626521 0.0788054 0)
(0.0645478 0.0598347 0)
(0.0652311 0.0434245 0)
(0.0649543 0.0294801 0)
(0.0643162 0.0171676 0)
(0.0623583 0.00583686 0)
(0.0605662 -0.00539358 0)
(0.0561294 -0.0168721 0)
(0.0532406 -0.0295134 0)
(0.0446712 -0.0433126 0)
(0.0422817 -0.0594128 0)
(0.0236652 -0.0765168 0)
(0.0288489 -0.106648 0)
(-0.00763852 -0.167912 0)
(0.0206596 -0.255063 0)
(0.0116558 0.0606777 0)
(0.0265555 0.0966207 0)
(0.043716 0.107293 0)
(0.0579114 0.105807 0)
(0.0692438 0.094676 0)
(0.0774192 0.0779192 0)
(0.0824514 0.0606533 0)
(0.0854489 0.0449287 0)
(0.086337 0.0314389 0)
(0.0865588 0.0195678 0)
(0.084315 0.0089624 0)
(0.0824726 -0.0013826 0)
(0.0767482 -0.0115714 0)
(0.0728914 -0.0228901 0)
(0.0620132 -0.0347469 0)
(0.0565894 -0.0493863 0)
(0.034146 -0.0645736 0)
(0.0364924 -0.0961107 0)
(-0.00554078 -0.160244 0)
(0.0266723 -0.254452 0)
(0.00440966 0.0380405 0)
(0.0242077 0.0704719 0)
(0.0442293 0.0842117 0)
(0.0621378 0.0862832 0)
(0.0781389 0.0794898 0)
(0.0910173 0.0675687 0)
(0.100365 0.0543055 0)
(0.106978 0.0413237 0)
(0.109904 0.0296136 0)
(0.111932 0.0191385 0)
(0.109681 0.00996482 0)
(0.108053 0.00120261 0)
(0.100687 -0.00699275 0)
(0.0954663 -0.0159679 0)
(0.081808 -0.0247342 0)
(0.0728642 -0.0363298 0)
(0.0467836 -0.0497548 0)
(0.0465198 -0.0826623 0)
(-0.00211708 -0.148891 0)
(0.034669 -0.246131 0)
(-0.00258367 0.0423012 0)
(0.0110874 0.0624902 0)
(0.0337157 0.0714779 0)
(0.0553299 0.0720804 0)
(0.075577 0.0666983 0)
(0.0942954 0.0576529 0)
(0.108124 0.0477596 0)
(0.119817 0.0382437 0)
(0.125077 0.0300192 0)
(0.130071 0.0218984 0)
(0.128759 0.0152788 0)
(0.128366 0.00830036 0)
(0.121108 0.00293668 0)
(0.115995 -0.0037993 0)
(0.10208 -0.0091736 0)
(0.0927628 -0.0185553 0)
(0.067878 -0.0311942 0)
(0.0663862 -0.0648075 0)
(0.0118182 -0.126553 0)
(0.0506769 -0.216564 0)
(-0.00832615 0.0108955 0)
(-0.0093981 0.01452 0)
(0.0194724 0.0257152 0)
(0.0476455 0.030826 0)
(0.0732054 0.0314668 0)
(0.0970106 0.0288217 0)
(0.115088 0.0251694 0)
(0.131223 0.0201421 0)
(0.141313 0.0162861 0)
(0.150155 0.0118937 0)
(0.153731 0.00929098 0)
(0.156758 0.00543847 0)
(0.155277 0.00355338 0)
(0.153357 -0.000807378 0)
(0.146154 -0.0031549 0)
(0.141053 -0.0100278 0)
(0.124974 -0.0176905 0)
(0.118859 -0.0434179 0)
(0.0611135 -0.0867265 0)
(0.0877069 -0.158954 0)
(0.0476093 0.0983323 0)
(0.0530699 0.0580453 0)
(0.0862734 0.0357946 0)
(0.113731 0.0268645 0)
(0.137719 0.0228138 0)
(0.161953 0.0198955 0)
(0.183173 0.0176104 0)
(0.202795 0.0154921 0)
(0.218486 0.013757 0)
(0.232157 0.0122824 0)
(0.24228 0.0108505 0)
(0.250818 0.00980213 0)
(0.256277 0.00825983 0)
(0.260373 0.00731914 0)
(0.261339 0.00512495 0)
(0.259101 0.00272217 0)
(0.251024 0.000692279 0)
(0.23556 -0.00827068 0)
(0.180905 -0.0207407 0)
(0.168858 -0.116688 0)
)
;

boundaryField
{
    movingWall
    {
        type            fixedValue;
        value           uniform (1 0 0);
    }
    fixedWalls
    {
        type            noSlip;
    }
    frontAndBack
    {
        type            empty;
    }
}


// ************************************************************************* //
