/*--------------------------------*- C++ -*----------------------------------*\
| =========                 |                                                 |
| \\      /  F ield         | OpenFOAM: The Open Source CFD Toolbox           |
|  \\    /   O peration     | Version:  4.1                                   |
|   \\  /    A nd           | Web:      www.OpenFOAM.org                      |
|    \\/     M anipulation  |                                                 |
\*---------------------------------------------------------------------------*/
FoamFile
{
    version     2.0;
    format      ascii;
    class       volScalarField;
    location    "1";
    object      epsilon;
}
// * * * * * * * * * * * * * * * * * * * * * * * * * * * * * * * * * * * * * //

dimensions      [0 2 -3 0 0 0 0];

internalField   nonuniform List<scalar> 
400
(
0.000277775
0.000458153
0.00064003
0.00078191
0.000889923
0.000975122
0.00104653
0.00111001
0.00116826
0.00122128
0.00126711
0.00129571
0.0013048
0.00129256
0.00123989
0.00113757
0.00097816
0.000760877
0.000497427
0.000307638
0.000458008
0.000458138
0.000545425
0.000614382
0.000661195
0.000692267
0.000713804
0.000729975
0.000742984
0.000753454
0.000759536
0.000760747
0.000756384
0.000746429
0.000726862
0.00069218
0.000638031
0.0005604
0.000490047
0.000532419
0.000669961
0.000543443
0.000594769
0.000645803
0.000681322
0.000704189
0.00071867
0.000728243
0.000734848
0.000739659
0.000742243
0.00074277
0.000740871
0.000735365
0.000724545
0.000705899
0.000676839
0.000637592
0.000616654
0.000790159
0.000847761
0.000623223
0.000651805
0.000693586
0.000724474
0.000744024
0.000755931
0.000763443
0.00076887
0.000773232
0.000776754
0.000779472
0.000781051
0.000781232
0.000778605
0.000772289
0.000760064
0.000748172
0.000756262
0.0010515
0.000991608
0.000683939
0.000696829
0.000733475
0.00076253
0.000781775
0.000793883
0.000801814
0.00080779
0.000813155
0.000818607
0.000824617
0.000831563
0.000840112
0.00085151
0.000867764
0.000891646
0.000928899
0.00101384
0.00144459
0.00110833
0.000729295
0.00073035
0.00076381
0.000792077
0.000811484
0.000824204
0.000833106
0.000840551
0.000848245
0.000857521
0.000869794
0.000887042
0.000912971
0.000954483
0.00102581
0.00115623
0.00139653
0.00179664
0.00245652
0.00120535
0.000763286
0.000755003
0.000786113
0.000814002
0.000833743
0.000847234
0.000857425
0.000867005
0.000878289
0.000893635
0.000916249
0.000951398
0.00100964
0.00111406
0.00132121
0.00177488
0.00271974
0.00406987
0.00544301
0.00128937
0.000789747
0.000773325
0.000802352
0.000829874
0.000849867
0.000864084
0.000875691
0.000887884
0.000903883
0.000927589
0.000965069
0.00102741
0.00113923
0.00136262
0.00187116
0.00310273
0.00561334
0.00863
0.0119375
0.0013661
0.0008118
0.000787479
0.000814274
0.000841137
0.000861067
0.000875748
0.000888656
0.000903621
0.000924983
0.000958589
0.00101423
0.00111138
0.00129759
0.00169998
0.00264548
0.00466678
0.00780238
0.0121955
0.0198998
0.0014403
0.000831768
0.000799175
0.000823248
0.000848919
0.000868267
0.000882945
0.000896758
0.00091418
0.000940664
0.0009839
0.00105713
0.00118725
0.00143909
0.00196504
0.00306487
0.00511024
0.00799332
0.0131456
0.0255919
0.00151611
0.000851381
0.00080968
0.000830281
0.000854059
0.000872183
0.00088627
0.000900362
0.000919443
0.000949732
0.000999937
0.00108432
0.00122864
0.0014838
0.00196091
0.00291542
0.0046638
0.00708739
0.0131359
0.0296083
0.00159792
0.000871967
0.000819908
0.000836115
0.000857265
0.000873591
0.000886536
0.000900236
0.000919917
0.000951932
0.00100455
0.00108941
0.00122303
0.00144027
0.0018136
0.00249489
0.00370702
0.00563126
0.0124277
0.0330975
0.00168947
0.00089452
0.000830536
0.000841434
0.000859513
0.000873974
0.000885838
0.000898991
0.000918478
0.000950197
0.00100139
0.00108086
0.00119646
0.00135169
0.00156711
0.00196065
0.00278371
0.00457953
0.0118621
0.0362777
0.00180035
0.000920032
0.000842227
0.000847516
0.000863259
0.000876417
0.000887676
0.000900675
0.000919947
0.00095065
0.000997785
0.00106514
0.00115396
0.00125699
0.00137292
0.00157058
0.00216738
0.00416897
0.0117552
0.0400793
0.00192568
0.000948329
0.000856969
0.000859587
0.000875015
0.000889002
0.00090156
0.000915913
0.000935981
0.000965887
0.00100931
0.00106782
0.00113372
0.00119285
0.00124683
0.00135797
0.00187434
0.00405986
0.0128373
0.0452459
0.0021039
0.000985114
0.000888784
0.000896365
0.00091925
0.00094109
0.000961338
0.000982654
0.00100824
0.001041
0.00108237
0.00113122
0.0011808
0.00121755
0.00123886
0.00129781
0.00177991
0.0042605
0.0154112
0.0526127
0.00225327
0.00107242
0.00100555
0.00105154
0.00110942
0.00116354
0.00121405
0.00126351
0.00131444
0.00136873
0.0014245
0.00147868
0.00151598
0.00152656
0.00150798
0.00153044
0.00202075
0.00524409
0.0196543
0.0634829
0.00267563
0.00151218
0.00173509
0.00200303
0.00224295
0.00246056
0.00266249
0.00285256
0.0030322
0.00320616
0.00336178
0.00351278
0.00359412
0.00365427
0.00362546
0.00367228
0.00450846
0.00994052
0.0302964
0.0810862
0.0039428
0.00627192
0.00975445
0.0121644
0.013944
0.0153846
0.0166055
0.0176438
0.0185209
0.0192861
0.0198744
0.0204893
0.0207563
0.0212244
0.0213412
0.0219063
0.0251413
0.038169
0.0707418
0.116336
0.0417038
0.0839212
0.125082
0.150464
0.166075
0.175737
0.181739
0.18497
0.186613
0.186529
0.185971
0.184789
0.182624
0.181101
0.17889
0.179241
0.180721
0.183833
0.195356
0.164333
)
;

boundaryField
{
    movingWall
    {
        Cmu             0.09;
        kappa           0.41;
        E               9.8;
        type            epsilonWallFunction;
        value           nonuniform List<scalar> 
20
(
0.0417038
0.0839212
0.125082
0.150464
0.166075
0.175737
0.181739
0.18497
0.186613
0.186529
0.185971
0.184789
0.182624
0.181101
0.17889
0.179241
0.180721
0.183833
0.195356
0.164333
)
;
    }
    fixedWalls
    {
        Cmu             0.09;
        kappa           0.41;
        E               9.8;
        type            epsilonWallFunction;
        value           nonuniform List<scalar> 
60
(
0.000277775
0.000458008
0.000669961
0.000847761
0.000991608
0.00110833
0.00120535
0.00128937
0.0013661
0.0014403
0.00151611
0.00159792
0.00168947
0.00180035
0.00192568
0.0021039
0.00225327
0.00267563
0.0039428
0.0417038
0.000307638
0.000532419
0.000790159
0.0010515
0.00144459
0.00245652
0.00544301
0.0119375
0.0198998
0.0255919
0.0296083
0.0330975
0.0362777
0.0400793
0.0452459
0.0526127
0.0634829
0.0810862
0.116336
0.164333
0.000277775
0.000458153
0.00064003
0.00078191
0.000889923
0.000975122
0.00104653
0.00111001
0.00116826
0.00122128
0.00126711
0.00129571
0.0013048
0.00129256
0.00123989
0.00113757
0.00097816
0.000760877
0.000497427
0.000307638
)
;
    }
    frontAndBack
    {
        type            empty;
    }
}


// ************************************************************************* //
