/*--------------------------------*- C++ -*----------------------------------*\
| =========                 |                                                 |
| \\      /  F ield         | OpenFOAM: The Open Source CFD Toolbox           |
|  \\    /   O peration     | Version:  4.1                                   |
|   \\  /    A nd           | Web:      www.OpenFOAM.org                      |
|    \\/     M anipulation  |                                                 |
\*---------------------------------------------------------------------------*/
FoamFile
{
    version     2.0;
    format      ascii;
    class       volScalarField;
    location    "1";
    object      k;
}
// * * * * * * * * * * * * * * * * * * * * * * * * * * * * * * * * * * * * * //

dimensions      [0 2 -2 0 0 0 0];

internalField   nonuniform List<scalar> 
400
(
0.000143322
0.000200208
0.00025036
0.000286279
0.00031224
0.000332034
0.000348224
0.000362341
0.000375084
0.000386517
0.000396283
0.00040233
0.000404255
0.000401718
0.000390661
0.000368721
0.000333203
0.000281554
0.000211774
0.000153713
0.000200149
0.00036118
0.000459427
0.000520657
0.00055912
0.000583579
0.000600009
0.00061239
0.000623104
0.000633245
0.000642853
0.000650295
0.000653465
0.000651022
0.00063786
0.000610168
0.00056099
0.000480576
0.000352939
0.000221957
0.000258129
0.00048245
0.000610993
0.000690387
0.000740041
0.000770922
0.000790524
0.00080393
0.000814243
0.000822894
0.000829714
0.000832836
0.000832044
0.000823071
0.000801964
0.000763083
0.000698272
0.000596172
0.000435547
0.000289381
0.000302186
0.000564761
0.000713449
0.000805503
0.000863547
0.000899751
0.000922383
0.000937137
0.000947561
0.000955302
0.000959674
0.000960589
0.000955536
0.000940656
0.000911434
0.000861345
0.000781133
0.000655679
0.000473262
0.000351228
0.000335658
0.000622009
0.000785326
0.000886987
0.000951627
0.000992174
0.00101743
0.00103353
0.00104438
0.0010516
0.00105482
0.00105428
0.00104615
0.00102647
0.000989678
0.000927762
0.000828293
0.000677077
0.000501203
0.000437226
0.000361677
0.00066192
0.000835938
0.000944981
0.00101483
0.00105892
0.00108643
0.00110387
0.00111543
0.00112289
0.00112619
0.00112527
0.00111566
0.00109232
0.00104729
0.000969262
0.000846119
0.000690042
0.000609076
0.000630737
0.000382631
0.00068986
0.000871492
0.000986053
0.00105987
0.00110669
0.00113604
0.00115474
0.00116731
0.00117594
0.00118028
0.00118036
0.00117033
0.00114257
0.00108461
0.000981223
0.000859669
0.000842123
0.000952171
0.00107885
0.000400326
0.000709755
0.000896529
0.00101495
0.00109153
0.00114025
0.00117093
0.00119074
0.00120453
0.00121487
0.00122112
0.00122256
0.0012112
0.001174
0.00108945
0.000990456
0.00098993
0.00128289
0.00162208
0.00180844
0.000416135
0.000724534
0.000914465
0.00103524
0.00111337
0.00116308
0.00119447
0.00121504
0.00122998
0.00124208
0.00125011
0.00125187
0.00123554
0.00118138
0.0010791
0.00103859
0.0012139
0.00169522
0.00202786
0.00251336
0.000431117
0.000736384
0.000927855
0.00104956
0.00112801
0.00117769
0.001209
0.00122977
0.00124542
0.00125878
0.00126728
0.00126751
0.00124178
0.00116612
0.00106568
0.00105424
0.001325
0.00175309
0.00214469
0.00295289
0.000446133
0.000746934
0.000938556
0.00105979
0.00113727
0.00118581
0.00121615
0.00123634
0.00125192
0.00126549
0.00127343
0.00127032
0.00123546
0.00113828
0.0010303
0.0010213
0.00129532
0.001673
0.00216146
0.00324795
0.000462031
0.000757373
0.000947824
0.00106712
0.00114226
0.00118844
0.00121684
0.00123585
0.00125089
0.00126407
0.00127143
0.00126592
0.00122296
0.001112
0.000980029
0.000950813
0.00117057
0.00152076
0.00216105
0.00349383
0.000479478
0.00076856
0.000956334
0.00107207
0.0011434
0.00118671
0.00121319
0.00123081
0.00124493
0.00125744
0.00126415
0.0012564
0.001211
0.00109979
0.000941419
0.000874073
0.00103189
0.00139485
0.00215346
0.00371171
0.000500189
0.000780778
0.000963968
0.00107422
0.00114096
0.00118062
0.00120414
0.0012198
0.00123281
0.00124485
0.00125184
0.00124503
0.00120431
0.00110553
0.000952944
0.000851736
0.000970149
0.00134052
0.00217564
0.00396734
0.000523077
0.000793975
0.000969568
0.00107236
0.00113342
0.00116834
0.001189
0.00120328
0.00121599
0.00122857
0.00123727
0.00123357
0.00120077
0.00111877
0.000986927
0.000881654
0.00097765
0.00132031
0.0022715
0.00430149
0.000554826
0.000804745
0.000970026
0.00106451
0.00111808
0.00114875
0.00116746
0.00118147
0.00119519
0.00120989
0.00122263
0.00122488
0.00120232
0.0011372
0.00102812
0.000923047
0.000996043
0.0013112
0.00243721
0.00475694
0.00058076
0.000818342
0.00096841
0.00104995
0.00109747
0.00112641
0.00114664
0.00116458
0.00118394
0.00120568
0.00122562
0.00123595
0.00122347
0.00117809
0.0010863
0.000965833
0.000998518
0.00131478
0.00273563
0.00539169
0.000651347
0.000853901
0.000999597
0.00108033
0.00113318
0.00117148
0.00120385
0.00123561
0.00126915
0.00130603
0.00134259
0.00137624
0.00138647
0.0013745
0.00132309
0.00121035
0.00124059
0.00168635
0.00346568
0.00634802
0.000844108
0.00121761
0.00156603
0.00178293
0.00194081
0.00207227
0.00218951
0.00229707
0.00239442
0.00248787
0.00256713
0.00265215
0.00270244
0.00276678
0.00278191
0.00282569
0.00303002
0.00383154
0.00595023
0.00807528
0.0040743
0.00649474
0.00847449
0.00958531
0.0102373
0.0106306
0.0108713
0.0109997
0.0110646
0.0110613
0.0110391
0.0109924
0.0109061
0.0108458
0.0107579
0.0107723
0.0108318
0.010956
0.0114095
0.0101669
)
;

boundaryField
{
    movingWall
    {
        type            kqRWallFunction;
        value           nonuniform List<scalar> 
20
(
0.0040743
0.00649474
0.00847449
0.00958531
0.0102373
0.0106306
0.0108713
0.0109997
0.0110646
0.0110613
0.0110391
0.0109924
0.0109061
0.0108458
0.0107579
0.0107723
0.0108318
0.010956
0.0114095
0.0101669
)
;
    }
    fixedWalls
    {
        type            kqRWallFunction;
        value           nonuniform List<scalar> 
60
(
0.000143322
0.000200149
0.000258129
0.000302186
0.000335658
0.000361677
0.000382631
0.000400326
0.000416135
0.000431117
0.000446133
0.000462031
0.000479478
0.000500189
0.000523077
0.000554826
0.00058076
0.000651347
0.000844108
0.0040743
0.000153713
0.000221957
0.000289381
0.000351228
0.000437226
0.000630737
0.00107885
0.00180844
0.00251336
0.00295289
0.00324795
0.00349383
0.00371171
0.00396734
0.00430149
0.00475694
0.00539169
0.00634802
0.00807528
0.0101669
0.000143322
0.000200208
0.00025036
0.000286279
0.00031224
0.000332034
0.000348224
0.000362341
0.000375084
0.000386517
0.000396283
0.00040233
0.000404255
0.000401718
0.000390661
0.000368721
0.000333203
0.000281554
0.000211774
0.000153713
)
;
    }
    frontAndBack
    {
        type            empty;
    }
}


// ************************************************************************* //
