/*--------------------------------*- C++ -*----------------------------------*\
| =========                 |                                                 |
| \\      /  F ield         | OpenFOAM: The Open Source CFD Toolbox           |
|  \\    /   O peration     | Version:  4.1                                   |
|   \\  /    A nd           | Web:      www.OpenFOAM.org                      |
|    \\/     M anipulation  |                                                 |
\*---------------------------------------------------------------------------*/
FoamFile
{
    version     2.0;
    format      ascii;
    class       volScalarField;
    location    "1";
    object      nut;
}
// * * * * * * * * * * * * * * * * * * * * * * * * * * * * * * * * * * * * * //

dimensions      [0 2 -1 0 0 0 0];

internalField   nonuniform List<scalar> 
400
(
6.65538e-06
7.87397e-06
8.81399e-06
9.43333e-06
9.85977e-06
1.01753e-05
1.04282e-05
1.06451e-05
1.08383e-05
1.10094e-05
1.11542e-05
1.12435e-05
1.12722e-05
1.12366e-05
1.10779e-05
1.07562e-05
1.02153e-05
9.37675e-06
8.11446e-06
6.91231e-06
7.87182e-06
2.56268e-05
3.4829e-05
3.97107e-05
4.25523e-05
4.42759e-05
4.53919e-05
4.6237e-05
4.7031e-05
4.78993e-05
4.89686e-05
5.00291e-05
5.08095e-05
5.11029e-05
5.03781e-05
4.84086e-05
4.43926e-05
3.7091e-05
2.28773e-05
8.32774e-06
8.95087e-06
3.85472e-05
5.64893e-05
6.64245e-05
7.23439e-05
7.59582e-05
7.82606e-05
7.98736e-05
8.11995e-05
8.23947e-05
8.34743e-05
8.40441e-05
8.40993e-05
8.29114e-05
7.9889e-05
7.42409e-05
6.48345e-05
5.01699e-05
2.76867e-05
9.53824e-06
9.69436e-06
4.60605e-05
7.02831e-05
8.41932e-05
9.26385e-05
9.79266e-05
0.000101294
0.000103531
0.0001051
0.000106222
0.00010671
0.000106541
0.00010521
0.000101935
9.60232e-05
8.64604e-05
7.22507e-05
5.17158e-05
2.66546e-05
1.05587e-05
1.02258e-05
5.09118e-05
7.96556e-05
9.65365e-05
0.000106886
0.000113328
0.000117353
0.000119898
0.000121523
0.000122397
0.000122327
0.000121312
0.00011845
0.000112876
0.000103524
8.92718e-05
6.92497e-05
4.44171e-05
2.22998e-05
1.19099e-05
1.06222e-05
5.40693e-05
8.6111e-05
0.000105221
0.000117021
0.000124361
0.000128887
0.000131636
0.000133218
0.000133781
0.000133113
0.000131021
0.000126289
0.000117621
0.000103421
8.24246e-05
5.57264e-05
3.06863e-05
1.85834e-05
1.45754e-05
1.09317e-05
5.61148e-05
9.05359e-05
0.000111316
0.000124199
0.000132209
0.000137095
0.000139965
0.000141447
0.000141702
0.000140299
0.000136855
0.000129568
0.000116371
9.50341e-05
6.5585e-05
3.74745e-05
2.34675e-05
2.0049e-05
1.92455e-05
1.11864e-05
5.7408e-05
9.35426e-05
0.00011555
0.000129211
0.000137686
0.000142807
0.000145723
0.000147069
0.000146957
0.00014468
0.000139387
0.000128509
0.000108884
7.83944e-05
4.71849e-05
2.84254e-05
2.63877e-05
2.74396e-05
2.46566e-05
1.14085e-05
5.81984e-05
9.55736e-05
0.000118455
0.000132635
0.000141392
0.000146626
0.000149517
0.000150678
0.000150109
0.000146727
0.000139067
0.000123621
9.68029e-05
6.16485e-05
3.66963e-05
2.84178e-05
3.31487e-05
3.03472e-05
2.85696e-05
1.1614e-05
5.86745e-05
9.6953e-05
0.000120428
0.000134898
0.000143764
0.000148992
0.00015178
0.000152701
0.000151602
0.000146906
0.000136778
0.000116893
8.50436e-05
5.20145e-05
3.26367e-05
3.09195e-05
3.46038e-05
3.14912e-05
3.06644e-05
1.18152e-05
5.89771e-05
9.79151e-05
0.000121747
0.000136295
0.000145098
0.000150193
0.000152793
0.000153417
0.000151759
0.000145954
0.000133941
0.000111808
7.85894e-05
4.87205e-05
3.21997e-05
3.23783e-05
3.55423e-05
3.20094e-05
3.20661e-05
1.20235e-05
5.92056e-05
9.86127e-05
0.000122576
0.000136979
0.000145508
0.000150319
0.000152693
0.000153085
0.00015107
0.000144829
0.000132392
0.00011006
7.72703e-05
4.76626e-05
3.26123e-05
3.32671e-05
3.69624e-05
3.38207e-05
3.31933e-05
1.2247e-05
5.94304e-05
9.91068e-05
0.000122933
0.000136894
0.000145021
0.000149536
0.000151659
0.000151867
0.000149763
0.000143627
0.00013144
0.000110314
8.05352e-05
5.08988e-05
3.50702e-05
3.44256e-05
3.82364e-05
3.51847e-05
3.41784e-05
1.2507e-05
5.9634e-05
9.92974e-05
0.00012254
0.000135719
0.000143137
0.000147009
0.00014868
0.000148687
0.000146709
0.000141352
0.000130977
0.000113117
8.75082e-05
5.95296e-05
4.15713e-05
3.90828e-05
3.87935e-05
3.62399e-05
3.53444e-05
1.27876e-05
5.98271e-05
9.87266e-05
0.000120402
0.000132131
0.000138189
0.000141128
0.000142273
0.00014218
0.000140642
0.000136503
0.000128255
0.000114461
9.44357e-05
7.03081e-05
5.15168e-05
4.58945e-05
3.8644e-05
3.61738e-05
3.68046e-05
1.31683e-05
5.91661e-05
9.52826e-05
0.000113779
0.000122393
0.000126201
0.0001276
0.000127847
0.000127512
0.000126557
0.000124295
0.000119367
0.000110182
9.55944e-05
7.67898e-05
5.90851e-05
5.0165e-05
3.63179e-05
3.46889e-05
3.87086e-05
1.34717e-05
5.62015e-05
8.3938e-05
9.43521e-05
9.77086e-05
9.81416e-05
9.74678e-05
9.66064e-05
9.59757e-05
9.55851e-05
9.49063e-05
9.29756e-05
8.88656e-05
8.18257e-05
7.04275e-05
5.48569e-05
4.4406e-05
2.96673e-05
3.4269e-05
4.12132e-05
1.42706e-05
4.33965e-05
5.18288e-05
5.24403e-05
5.15258e-05
5.01974e-05
4.89889e-05
4.81696e-05
4.78092e-05
4.7881e-05
4.82571e-05
4.85268e-05
4.81363e-05
4.653e-05
4.34566e-05
3.59026e-05
3.07234e-05
2.5747e-05
3.56803e-05
4.47272e-05
1.62642e-05
2.12744e-05
2.26277e-05
2.3519e-05
2.43122e-05
2.51218e-05
2.59827e-05
2.69153e-05
2.786e-05
2.88838e-05
2.98432e-05
3.08967e-05
3.16668e-05
3.24606e-05
3.2637e-05
3.28037e-05
3.28659e-05
3.46161e-05
4.50437e-05
5.04482e-05
3.58239e-05
4.52371e-05
5.16744e-05
5.49571e-05
5.67952e-05
5.78758e-05
5.85266e-05
5.88713e-05
5.90435e-05
5.90344e-05
5.89749e-05
5.88509e-05
5.86177e-05
5.84585e-05
5.82252e-05
5.8267e-05
5.843e-05
5.8766e-05
5.99718e-05
5.66101e-05
)
;

boundaryField
{
    movingWall
    {
        type            nutkWallFunction;
        Cmu             0.09;
        kappa           0.41;
        E               9.8;
        value           nonuniform List<scalar> 
20
(
0
0
7.30227e-07
1.26775e-06
1.56667e-06
1.74168e-06
1.84693e-06
1.90257e-06
1.93053e-06
1.9291e-06
1.91957e-06
1.89942e-06
1.86208e-06
1.83588e-06
1.79752e-06
1.80382e-06
1.82978e-06
1.8837e-06
2.0776e-06
1.53491e-06
)
;
    }
    fixedWalls
    {
        type            nutkWallFunction;
        Cmu             0.09;
        kappa           0.41;
        E               9.8;
        value           nonuniform List<scalar> 
60
(
0
0
0
0
0
0
0
0
0
0
0
0
0
0
0
0
0
0
0
0
0
0
0
0
0
0
0
0
0
0
0
0
0
0
0
0
0
0
5.27173e-07
1.53491e-06
0
0
0
0
0
0
0
0
0
0
0
0
0
0
0
0
0
0
0
0
)
;
    }
    frontAndBack
    {
        type            empty;
    }
}


// ************************************************************************* //
