/*--------------------------------*- C++ -*----------------------------------*\
| =========                 |                                                 |
| \\      /  F ield         | OpenFOAM: The Open Source CFD Toolbox           |
|  \\    /   O peration     | Version:  4.1                                   |
|   \\  /    A nd           | Web:      www.OpenFOAM.org                      |
|    \\/     M anipulation  |                                                 |
\*---------------------------------------------------------------------------*/
FoamFile
{
    version     2.0;
    format      ascii;
    class       volScalarField;
    location    "1";
    object      p;
}
// * * * * * * * * * * * * * * * * * * * * * * * * * * * * * * * * * * * * * //

dimensions      [0 2 -2 0 0 0 0];

internalField   nonuniform List<scalar> 
400
(
-1.55127e-08
-4.58575e-06
3.71579e-06
2.57345e-05
6.39096e-05
0.000120165
0.000196548
0.000295457
0.000419739
0.000572646
0.000757413
0.000976255
0.00123209
0.00152332
0.00184023
0.00216689
0.00247457
0.00272587
0.0028882
0.00294895
3.88238e-06
-1.53629e-06
7.92238e-06
3.19403e-05
7.10487e-05
0.000126808
0.00020133
0.000297077
0.000416919
0.000564094
0.000742006
0.00095387
0.00120251
0.00148653
0.00180127
0.00213255
0.00245482
0.00272893
0.00291276
0.00298347
-7.46318e-06
-1.72163e-05
-1.01822e-05
1.3282e-05
5.14682e-05
0.000104938
0.000175589
0.000265877
0.000378772
0.000517809
0.000687071
0.000890969
0.00113373
0.00141713
0.00174199
0.00209822
0.00246255
0.00278837
0.00301264
0.00309489
-3.69238e-05
-5.29217e-05
-5.18968e-05
-3.27935e-05
1.21082e-06
4.94517e-05
0.000113316
0.000195107
0.000297911
0.000425762
0.000583774
0.000778202
0.00101641
0.00130594
0.00165013
0.00205085
0.00248735
0.00290001
0.00318566
0.00327786
-8.68194e-05
-0.000108744
-0.000115075
-0.0001031
-7.64642e-05
-3.67865e-05
1.67516e-05
8.61739e-05
0.000174565
0.000286348
0.000427571
0.000606414
0.000833837
0.00112312
0.00148803
0.00194519
0.002487
0.0030355
0.00340427
0.00351132
-0.000156642
-0.000183483
-0.000197207
-0.00019386
-0.000177016
-0.000148977
-0.000109511
-5.70564e-05
1.11503e-05
9.94468e-05
0.000214228
0.000364939
0.000565568
0.000835927
0.00120438
0.0017089
0.00237722
0.00310522
0.00357125
0.00373008
-0.000244246
-0.000275144
-0.000296015
-0.000302154
-0.000296912
-0.000283179
-0.000261439
-0.00023092
-0.000189745
-0.00013453
-5.984e-05
4.31826e-05
0.000189155
0.000402148
0.000722899
0.00121063
0.0019448
0.00283881
0.00349891
0.00375977
-0.000346582
-0.000380931
-0.000408664
-0.000424738
-0.000432348
-0.000435032
-0.000434226
-0.00043039
-0.000423305
-0.00041181
-0.000393473
-0.000363032
-0.000309664
-0.000215358
-5.07776e-05
0.000253465
0.000792856
0.00171847
0.00280967
0.00322874
-0.000460175
-0.000497524
-0.000531735
-0.000557717
-0.000578686
-0.000598985
-0.000621268
-0.000647691
-0.000680499
-0.000722211
-0.000775952
-0.000844065
-0.000926932
-0.00103672
-0.00121491
-0.00142675
-0.00138414
-0.000625317
0.000933705
0.00174296
-0.000581467
-0.00062141
-0.000661475
-0.00069668
-0.000730495
-0.00076825
-0.000814013
-0.000871941
-0.000947278
-0.00104725
-0.00118248
-0.00136672
-0.00161981
-0.00200027
-0.0026373
-0.00352747
-0.00419035
-0.00371159
-0.00217605
-0.000718345
-0.000707152
-0.00074931
-0.000794158
-0.000837005
-0.000881844
-0.000935154
-0.00100245
-0.00108983
-0.00120546
-0.00136118
-0.00157508
-0.00187377
-0.0022989
-0.00293379
-0.00397003
-0.00541093
-0.00666893
-0.00646087
-0.00528883
-0.00345099
-0.000834659
-0.000878577
-0.000926488
-0.000974233
-0.00102675
-0.00109181
-0.00117616
-0.00128739
-0.0014357
-0.00163603
-0.00191114
-0.00229582
-0.0028459
-0.00364516
-0.0048577
-0.00645803
-0.00807033
-0.00797063
-0.0072167
-0.00522941
-0.000963235
-0.00100788
-0.00105609
-0.00110447
-0.00115967
-0.00123096
-0.00132579
-0.00145258
-0.00162214
-0.00185023
-0.0021603
-0.00258712
-0.00317903
-0.0040133
-0.00516954
-0.00653373
-0.00831578
-0.00788203
-0.00775318
-0.0055556
-0.00109406
-0.00113732
-0.00118156
-0.00122457
-0.001276
-0.00134666
-0.00144436
-0.00157753
-0.00175593
-0.00199406
-0.00231241
-0.00273981
-0.00331604
-0.00405866
-0.00503723
-0.00611385
-0.0072581
-0.00693711
-0.00703905
-0.00486359
-0.00123537
-0.00127163
-0.00130439
-0.00133306
-0.00137225
-0.00143466
-0.00152775
-0.00165849
-0.00183475
-0.00206847
-0.00237523
-0.00277218
-0.00328207
-0.00391144
-0.0046471
-0.00534254
-0.00604119
-0.00562739
-0.00589772
-0.00387452
-0.00139535
-0.00140868
-0.0014207
-0.00142503
-0.00144417
-0.00149001
-0.00157143
-0.00169196
-0.0018574
-0.00207674
-0.00236104
-0.00272144
-0.00316389
-0.00367555
-0.00421814
-0.0046319
-0.00500346
-0.00437727
-0.00487197
-0.00262977
-0.00159086
-0.00155693
-0.00152259
-0.00148221
-0.00147503
-0.00150423
-0.00157031
-0.001675
-0.00182302
-0.0020208
-0.00227844
-0.00260215
-0.00299302
-0.00342359
-0.00384872
-0.00408484
-0.00419207
-0.00330962
-0.0037408
4.23722e-05
-0.00170835
-0.00151813
-0.00145017
-0.00140674
-0.00140352
-0.00143839
-0.00150437
-0.00160305
-0.00174063
-0.00192247
-0.00215961
-0.00245477
-0.00281251
-0.00319214
-0.0035485
-0.00366633
-0.00349417
-0.00221612
-0.00132973
0.00741184
-0.00364457
-0.0028466
-0.00234325
-0.00192688
-0.00171447
-0.00162312
-0.00161056
-0.00165473
-0.00175148
-0.00189694
-0.00210576
-0.00236756
-0.00269717
-0.00303333
-0.00333975
-0.00335757
-0.00266086
-0.000220227
0.00418842
0.0207196
0.000927545
0.00179299
0.00057762
-0.000207301
-0.000592316
-0.000815909
-0.00100255
-0.00118422
-0.00137949
-0.00159522
-0.00185108
-0.00215013
-0.00247287
-0.0027586
-0.00282133
-0.00243331
-0.000768336
0.00362775
0.0127363
0.0311813
)
;

boundaryField
{
    movingWall
    {
        type            zeroGradient;
    }
    fixedWalls
    {
        type            zeroGradient;
    }
    frontAndBack
    {
        type            empty;
    }
}


// ************************************************************************* //
