/*--------------------------------*- C++ -*----------------------------------*\
| =========                 |                                                 |
| \\      /  F ield         | OpenFOAM: The Open Source CFD Toolbox           |
|  \\    /   O peration     | Version:  4.1                                   |
|   \\  /    A nd           | Web:      www.OpenFOAM.org                      |
|    \\/     M anipulation  |                                                 |
\*---------------------------------------------------------------------------*/
FoamFile
{
    version     2.0;
    format      ascii;
    class       surfaceScalarField;
    location    "1";
    object      phi;
}
// * * * * * * * * * * * * * * * * * * * * * * * * * * * * * * * * * * * * * //

dimensions      [0 3 -1 0 0 0 0];

internalField   nonuniform List<scalar> 
760
(
-2.77809e-08
2.77824e-08
-9.24376e-08
6.46568e-08
-1.78578e-07
8.614e-08
-2.73678e-07
9.51006e-08
-3.7141e-07
9.77321e-08
-4.68971e-07
9.75609e-08
-5.64959e-07
9.59878e-08
-6.58182e-07
9.32232e-08
-7.46859e-07
8.86772e-08
-8.2798e-07
8.11211e-08
-8.9679e-07
6.88102e-08
-9.46115e-07
4.93254e-08
-9.68776e-07
2.26603e-08
-9.53272e-07
-1.55032e-08
-8.89072e-07
-6.42008e-08
-7.6827e-07
-1.20802e-07
-5.91062e-07
-1.77208e-07
-3.74426e-07
-2.16636e-07
-1.59171e-07
-2.15255e-07
-1.59171e-07
-6.25529e-08
9.03354e-08
-1.49481e-07
1.51585e-07
-2.47577e-07
1.84236e-07
-3.52155e-07
1.99678e-07
-4.59974e-07
2.05551e-07
-5.68673e-07
2.06261e-07
-6.7636e-07
2.03675e-07
-7.81117e-07
1.97981e-07
-8.80527e-07
1.88087e-07
-9.71208e-07
1.71802e-07
-1.04842e-06
1.46026e-07
-1.10622e-06
1.0712e-07
-1.13541e-06
5.1852e-08
-1.12688e-06
-2.40298e-08
-1.069e-06
-1.22085e-07
-9.51835e-07
-2.37967e-07
-7.70334e-07
-3.58709e-07
-5.3004e-07
-4.5693e-07
-2.52294e-07
-4.93e-07
-4.11466e-07
-8.35291e-08
1.73864e-07
-1.79127e-07
2.47183e-07
-2.78812e-07
2.83921e-07
-3.82586e-07
3.03452e-07
-4.89602e-07
3.12567e-07
-5.98522e-07
3.1518e-07
-7.07866e-07
3.13019e-07
-8.15966e-07
3.06081e-07
-9.20737e-07
2.92859e-07
-1.01936e-06
2.7042e-07
-1.10788e-06
2.3455e-07
-1.1808e-06
1.80044e-07
-1.22999e-06
1.01037e-07
-1.24582e-06
-8.1946e-09
-1.21375e-06
-1.54155e-07
-1.11764e-06
-3.34075e-07
-9.41172e-07
-5.35181e-07
-6.75055e-07
-7.23047e-07
-3.33008e-07
-8.35048e-07
-7.44473e-07
-9.20415e-08
2.65906e-07
-1.92191e-07
3.47333e-07
-2.93364e-07
3.85094e-07
-3.96754e-07
4.06842e-07
-5.0294e-07
4.18753e-07
-6.11705e-07
4.23946e-07
-7.22463e-07
4.23776e-07
-8.34407e-07
4.18025e-07
-9.46447e-07
4.04899e-07
-1.05696e-06
3.80936e-07
-1.16337e-06
3.40953e-07
-1.26131e-06
2.77993e-07
-1.34345e-06
1.83175e-07
-1.39885e-06
4.72072e-08
-1.40901e-06
-1.43996e-07
-1.3467e-06
-3.96388e-07
-1.17616e-06
-7.05721e-07
-8.63642e-07
-1.03556e-06
-4.2286e-07
-1.27583e-06
-1.16733e-06
-9.38126e-08
3.59719e-07
-1.95858e-07
4.49378e-07
-2.98225e-07
4.87462e-07
-4.01878e-07
5.10496e-07
-5.08009e-07
5.24883e-07
-6.17329e-07
5.33266e-07
-7.30309e-07
5.36756e-07
-8.47363e-07
5.35079e-07
-9.6887e-07
5.26406e-07
-1.095e-06
5.07067e-07
-1.22522e-06
4.71169e-07
-1.35728e-06
4.10057e-07
-1.48561e-06
3.11506e-07
-1.59783e-06
1.59427e-07
-1.67334e-06
-6.84902e-08
-1.6689e-06
-4.00829e-07
-1.51673e-06
-8.57885e-07
-1.13371e-06
-1.41858e-06
-5.44743e-07
-1.8648e-06
-1.71208e-06
-9.24201e-08
4.52139e-07
-1.94521e-07
5.51479e-07
-2.97287e-07
5.90228e-07
-4.01082e-07
6.1429e-07
-5.07261e-07
6.31063e-07
-6.17228e-07
6.43233e-07
-7.325e-07
6.52028e-07
-8.54883e-07
6.57462e-07
-9.86572e-07
6.58095e-07
-1.13007e-06
6.50562e-07
-1.28771e-06
6.28813e-07
-1.46067e-06
5.83019e-07
-1.64682e-06
4.9765e-07
-1.83612e-06
3.4873e-07
-2.00691e-06
1.02299e-07
-2.10181e-06
-3.05925e-07
-2.0014e-06
-9.58296e-07
-1.52334e-06
-1.89664e-06
-7.43879e-07
-2.64426e-06
-2.45595e-06
-8.95932e-08
5.41732e-07
-1.90514e-07
6.524e-07
-2.92733e-07
6.92447e-07
-3.95943e-07
7.175e-07
-5.01445e-07
7.36565e-07
-6.11125e-07
7.52914e-07
-7.27441e-07
7.68344e-07
-8.53601e-07
7.83622e-07
-9.93765e-07
7.98259e-07
-1.15312e-06
8.09914e-07
-1.33763e-06
8.13324e-07
-1.5532e-06
7.98592e-07
-1.80374e-06
7.48195e-07
-2.08749e-06
6.32474e-07
-2.38382e-06
3.98627e-07
-2.63798e-06
-5.17589e-08
-2.63685e-06
-9.59425e-07
-2.0774e-06
-2.4561e-06
-1.10227e-06
-3.61939e-06
-3.55823e-06
-8.62164e-08
6.27948e-07
-1.85169e-07
7.51353e-07
-2.85891e-07
7.93169e-07
-3.87378e-07
8.18987e-07
-4.90724e-07
8.39911e-07
-5.98098e-07
8.60287e-07
-7.12686e-07
8.82932e-07
-8.38898e-07
9.09834e-07
-9.8266e-07
9.42022e-07
-1.1517e-06
9.78949e-07
-1.35566e-06
1.01729e-06
-1.60587e-06
1.04879e-06
-1.91455e-06
1.05688e-06
-2.29411e-06
1.01204e-06
-2.74469e-06
8.49202e-07
-3.17243e-06
3.75989e-07
-3.2666e-06
-8.6526e-07
-2.69277e-06
-3.02993e-06
-1.54368e-06
-4.76848e-06
-5.10191e-06
-8.29164e-08
7.10865e-07
-1.79526e-07
8.47962e-07
-2.77894e-07
8.91536e-07
-3.76258e-07
9.17351e-07
-4.75362e-07
9.39015e-07
-5.77425e-07
9.6235e-07
-6.86035e-07
9.91542e-07
-8.0633e-07
1.03013e-06
-9.45327e-07
1.08102e-06
-1.11232e-06
1.14594e-06
-1.31938e-06
1.22435e-06
-1.58178e-06
1.31119e-06
-1.9189e-06
1.394e-06
-2.35414e-06
1.44727e-06
-2.88768e-06
1.38275e-06
-3.36141e-06
8.49721e-07
-3.4274e-06
-7.99272e-07
-2.90102e-06
-3.55631e-06
-1.73903e-06
-5.93047e-06
-6.84094e-06
-8.03708e-08
7.91236e-07
-1.74749e-07
9.42341e-07
-2.70121e-07
9.86908e-07
-3.63863e-07
1.01109e-06
-4.56231e-07
1.03138e-06
-5.49262e-07
1.05538e-06
-6.46529e-07
1.08881e-06
-7.53198e-07
1.1368e-06
-8.7624e-07
1.20406e-06
-1.02473e-06
1.29443e-06
-1.21037e-06
1.40999e-06
-1.44843e-06
1.54925e-06
-1.75892e-06
1.7045e-06
-2.1591e-06
1.84745e-06
-2.62297e-06
1.84662e-06
-2.97577e-06
1.20252e-06
-2.95821e-06
-8.16826e-07
-2.54211e-06
-3.97241e-06
-1.56862e-06
-6.90396e-06
-8.40956e-06
-7.95185e-08
8.70754e-07
-1.72449e-07
1.03527e-06
-2.64521e-07
1.07898e-06
-3.52177e-07
1.09875e-06
-4.35146e-07
1.11435e-06
-5.15129e-07
1.13536e-06
-5.95302e-07
1.16898e-06
-6.80118e-07
1.22161e-06
-7.75243e-07
1.29919e-06
-8.87508e-07
1.4067e-06
-1.02492e-06
1.5474e-06
-1.19687e-06
1.72121e-06
-1.4152e-06
1.92283e-06
-1.67497e-06
2.10721e-06
-1.93597e-06
2.10762e-06
-2.07394e-06
1.34048e-06
-2.04621e-06
-8.4456e-07
-1.83768e-06
-4.18093e-06
-1.27473e-06
-7.46692e-06
-9.68428e-06
-8.17227e-08
9.52477e-07
-1.74898e-07
1.12845e-06
-2.63765e-07
1.16785e-06
-3.43957e-07
1.17894e-06
-4.14875e-07
1.18527e-06
-4.77969e-07
1.19846e-06
-5.35834e-07
1.22685e-06
-5.91713e-07
1.27749e-06
-6.4913e-07
1.3566e-06
-7.11427e-07
1.46899e-06
-7.81004e-07
1.61698e-06
-8.58184e-07
1.79839e-06
-9.38572e-07
2.00322e-06
-1.00072e-06
2.16936e-06
-1.01713e-06
2.12404e-06
-9.55169e-07
1.27852e-06
-9.76389e-07
-8.2334e-07
-9.71538e-07
-4.18578e-06
-9.05822e-07
-7.53263e-06
-1.05901e-05
-8.9414e-08
1.04189e-06
-1.85449e-07
1.22448e-06
-2.71254e-07
1.25365e-06
-3.42431e-07
1.25012e-06
-3.98624e-07
1.24146e-06
-4.41475e-07
1.24131e-06
-4.73125e-07
1.2585e-06
-4.95542e-07
1.29991e-06
-5.09981e-07
1.37104e-06
-5.16341e-07
1.47535e-06
-5.11888e-07
1.61253e-06
-4.89113e-07
1.77561e-06
-4.32626e-07
1.94673e-06
-3.18805e-07
2.05554e-06
-1.41904e-07
1.94714e-06
-1.76661e-09
1.13838e-06
7.91556e-08
-9.04262e-07
-2.15182e-07
-3.89145e-06
-4.71058e-07
-7.27676e-06
-1.10612e-05
-1.04819e-07
1.14671e-06
-2.07454e-07
1.32712e-06
-2.9016e-07
1.33636e-06
-3.5016e-07
1.31012e-06
-3.88533e-07
1.27984e-06
-4.08204e-07
1.26098e-06
-4.11465e-07
1.26176e-06
-3.98972e-07
1.28741e-06
-3.70147e-07
1.34222e-06
-3.22558e-07
1.42776e-06
-2.50846e-07
1.54081e-06
-1.44733e-07
1.6695e-06
1.52471e-08
1.78675e-06
2.41755e-07
1.82903e-06
5.46585e-07
1.64231e-06
7.87883e-07
8.97084e-07
6.92834e-07
-8.09213e-07
2.69078e-07
-3.46769e-06
-1.08329e-07
-6.89935e-06
-1.11695e-05
-1.37614e-07
1.28432e-06
-2.46979e-07
1.43648e-06
-3.22942e-07
1.41232e-06
-3.66659e-07
1.35384e-06
-3.82791e-07
1.29597e-06
-3.7703e-07
1.25522e-06
-3.5145e-07
1.23618e-06
-3.05295e-07
1.24126e-06
-2.36751e-07
1.27367e-06
-1.42375e-07
1.33339e-06
-1.66381e-08
1.41508e-06
1.47721e-07
1.50514e-06
3.60422e-07
1.57405e-06
6.28987e-07
1.56046e-06
9.30582e-07
1.34071e-06
1.14344e-06
6.84224e-07
1.01005e-06
-6.75824e-07
5.82795e-07
-3.04043e-06
1.27551e-07
-6.44411e-06
-1.10419e-05
-1.7951e-07
1.46383e-06
-2.98025e-07
1.555e-06
-3.63014e-07
1.47731e-06
-3.81622e-07
1.37244e-06
-3.71465e-07
1.28581e-06
-3.39189e-07
1.22294e-06
-2.84963e-07
1.18195e-06
-2.07855e-07
1.16415e-06
-1.05054e-07
1.17087e-06
2.77703e-08
1.20056e-06
1.93215e-07
1.24963e-06
3.94757e-07
1.3036e-06
6.32148e-07
1.33666e-06
8.97375e-07
1.29524e-06
1.1475e-06
1.09059e-06
1.29268e-06
5.39038e-07
1.14515e-06
-5.28294e-07
7.22434e-07
-2.61771e-06
2.34897e-07
-5.95657e-06
-1.0807e-05
-3.13106e-07
1.77694e-06
-3.95775e-07
1.63767e-06
-3.99254e-07
1.48079e-06
-3.68425e-07
1.34161e-06
-3.2322e-07
1.24061e-06
-2.58384e-07
1.15811e-06
-1.73223e-07
1.09679e-06
-6.62323e-08
1.05716e-06
6.63486e-08
1.03829e-06
2.28533e-07
1.03838e-06
4.23574e-07
1.05459e-06
6.53324e-07
1.07385e-06
9.07067e-07
1.08292e-06
1.16695e-06
1.03536e-06
1.37635e-06
8.81182e-07
1.46989e-06
4.45503e-07
1.32243e-06
-3.80835e-07
8.6291e-07
-2.1582e-06
3.40858e-07
-5.43452e-06
-1.04662e-05
-4.34101e-07
2.21104e-06
-4.07414e-07
1.61098e-06
-3.20407e-07
1.39378e-06
-2.23409e-07
1.24462e-06
-1.14407e-07
1.1316e-06
1.19472e-08
1.03175e-06
1.56783e-07
9.51955e-07
3.21611e-07
8.92333e-07
5.0858e-07
8.51323e-07
7.23704e-07
8.23256e-07
9.67596e-07
8.107e-07
1.24233e-06
7.99114e-07
1.53133e-06
7.93909e-07
1.8158e-06
7.50893e-07
2.02822e-06
6.6876e-07
2.11705e-06
3.56668e-07
1.99e-06
-2.53782e-07
1.54449e-06
-1.71269e-06
7.36697e-07
-4.62672e-06
-9.72949e-06
-3.7423e-07
2.58527e-06
-1.94541e-07
1.43129e-06
1.96246e-07
1.00299e-06
5.86783e-07
8.54079e-07
9.68267e-07
7.50119e-07
1.3345e-06
6.65525e-07
1.68709e-06
5.9936e-07
2.03035e-06
5.49077e-07
2.36888e-06
5.12793e-07
2.71095e-06
4.81183e-07
3.05701e-06
4.64636e-07
3.41557e-06
4.40553e-07
3.77488e-06
4.34599e-07
4.14597e-06
3.79811e-07
4.4819e-06
3.32821e-07
4.70563e-06
1.32945e-07
4.66481e-06
-2.12969e-07
4.11935e-06
-1.16723e-06
2.39632e-06
-2.90369e-06
-7.33317e-06
2.58527e-06
4.01656e-06
5.01955e-06
5.87363e-06
6.62375e-06
7.28928e-06
7.88864e-06
8.43771e-06
8.95051e-06
9.43169e-06
9.89632e-06
1.03369e-05
1.07715e-05
1.11513e-05
1.14841e-05
1.16171e-05
1.14041e-05
1.02369e-05
7.33317e-06
)
;

boundaryField
{
    movingWall
    {
        type            calculated;
        value           uniform 0;
    }
    fixedWalls
    {
        type            calculated;
        value           uniform 0;
    }
    frontAndBack
    {
        type            empty;
        value           nonuniform 0();
    }
}


// ************************************************************************* //
