/*--------------------------------*- C++ -*----------------------------------*\
| =========                 |                                                 |
| \\      /  F ield         | OpenFOAM: The Open Source CFD Toolbox           |
|  \\    /   O peration     | Version:  4.1                                   |
|   \\  /    A nd           | Web:      www.OpenFOAM.org                      |
|    \\/     M anipulation  |                                                 |
\*---------------------------------------------------------------------------*/
FoamFile
{
    version     2.0;
    format      ascii;
    class       volVectorField;
    location    "1";
    object      U;
}
// * * * * * * * * * * * * * * * * * * * * * * * * * * * * * * * * * * * * * //

dimensions      [0 1 -1 0 0 0 0];

internalField   nonuniform List<vector> 
400
(
(-0.000154906 0.000161664 0)
(-0.00104413 0.000610324 0)
(-0.00266779 0.000901517 0)
(-0.00451527 0.00101333 0)
(-0.0064598 0.0010379 0)
(-0.00842103 0.00103021 0)
(-0.0103628 0.00101042 0)
(-0.0122619 0.000981792 0)
(-0.0140904 0.000937125 0)
(-0.0158012 0.000861052 0)
(-0.017317 0.000731458 0)
(-0.0185459 0.000515138 0)
(-0.0192367 0.000252314 0)
(-0.0193615 -0.000188848 0)
(-0.0185558 -0.000730406 0)
(-0.0166959 -0.00135644 0)
(-0.0136792 -0.00195959 0)
(-0.00967629 -0.00231546 0)
(-0.00518727 -0.00210269 0)
(-0.00145773 -0.00136004 0)
(-0.000587002 0.00104178 0)
(-0.00204439 0.00211193 0)
(-0.00392762 0.00270917 0)
(-0.00598003 0.0029758 0)
(-0.00812048 0.0030658 0)
(-0.0102963 0.00306863 0)
(-0.0124698 0.00302231 0)
(-0.0146052 0.00293254 0)
(-0.0166607 0.00278219 0)
(-0.0185799 0.00253557 0)
(-0.0202825 0.00214245 0)
(-0.0216609 0.00154125 0)
(-0.0225589 0.000689043 0)
(-0.0227995 -0.000471087 0)
(-0.0221584 -0.0019612 0)
(-0.0204128 -0.00369036 0)
(-0.0173915 -0.00542407 0)
(-0.0131307 -0.00669388 0)
(-0.00789639 -0.00685642 0)
(-0.00251015 -0.00530242 0)
(-0.00089072 0.00260754 0)
(-0.00261322 0.00395997 0)
(-0.00454493 0.00466575 0)
(-0.00659288 0.00502576 0)
(-0.00871384 0.00517974 0)
(-0.010882 0.00521181 0)
(-0.0130733 0.0051593 0)
(-0.0152579 0.00502465 0)
(-0.0173993 0.0047818 0)
(-0.0194501 0.00437926 0)
(-0.0213436 0.00374406 0)
(-0.0229871 0.00278908 0)
(-0.024245 0.00142315 0)
(-0.0249402 -0.000446523 0)
(-0.0248275 -0.00286334 0)
(-0.023584 -0.00576492 0)
(-0.02086 -0.00887222 0)
(-0.0164253 -0.0115708 0)
(-0.0103109 -0.0129023 0)
(-0.00341388 -0.011215 0)
(-0.00100982 0.00438455 0)
(-0.0028607 0.00592669 0)
(-0.0048319 0.00667271 0)
(-0.0068808 0.00708882 0)
(-0.00898509 0.00730017 0)
(-0.0111398 0.00737561 0)
(-0.0133401 0.0073456 0)
(-0.0155734 0.00720765 0)
(-0.0178216 0.00692824 0)
(-0.0200589 0.00644302 0)
(-0.0222458 0.00565786 0)
(-0.0243167 0.00445256 0)
(-0.026159 0.00268106 0)
(-0.0275951 0.00018666 0)
(-0.0283356 -0.00315387 0)
(-0.0279093 -0.00739972 0)
(-0.0256532 -0.0123331 0)
(-0.0208652 -0.017221 0)
(-0.0132503 -0.020448 0)
(-0.00427215 -0.0185873 0)
(-0.00102979 0.00624922 0)
(-0.00292639 0.00795754 0)
(-0.00492448 0.00871541 0)
(-0.00698206 0.00916418 0)
(-0.00908456 0.00942698 0)
(-0.0112399 0.00955925 0)
(-0.0134629 0.00958442 0)
(-0.0157635 0.00949651 0)
(-0.0181503 0.00925813 0)
(-0.0206299 0.00879669 0)
(-0.0232031 0.00800064 0)
(-0.0258477 0.006714 0)
(-0.0284923 0.00472882 0)
(-0.0309756 0.00178654 0)
(-0.0329856 -0.00241129 0)
(-0.0338777 -0.0081656 0)
(-0.0324938 -0.0155451 0)
(-0.0272739 -0.0238515 0)
(-0.0174066 -0.0301917 0)
(-0.00531076 -0.0278395 0)
(-0.00100699 0.0081137 0)
(-0.00289969 0.0100032 0)
(-0.00490552 0.0107706 0)
(-0.00696536 0.0112417 0)
(-0.009067 0.0115529 0)
(-0.011225 0.0117552 0)
(-0.0134716 0.0118702 0)
(-0.0158409 0.0118935 0)
(-0.0183731 0.0117904 0)
(-0.0211164 0.0114881 0)
(-0.0241242 0.010865 0)
(-0.0274385 0.00973499 0)
(-0.0310616 0.00782132 0)
(-0.0349061 0.00472512 0)
(-0.0386911 -0.000113678 0)
(-0.0416363 -0.00739709 0)
(-0.0419314 -0.0179508 0)
(-0.0364738 -0.031742 0)
(-0.0236512 -0.0432831 0)
(-0.00728994 -0.0396446 0)
(-0.00096697 0.00993464 0)
(-0.00282763 0.0120359 0)
(-0.00482198 0.0128237 0)
(-0.00686892 0.0133154 0)
(-0.00895604 0.0136741 0)
(-0.0111007 0.0139575 0)
(-0.013349 0.0141936 0)
(-0.0157582 0.014388 0)
(-0.0184016 0.0145188 0)
(-0.0213731 0.0145256 0)
(-0.0247891 0.0142914 0)
(-0.0287756 0.0136145 0)
(-0.0334477 0.0121591 0)
(-0.0388623 0.00938756 0)
(-0.0448774 0.00443665 0)
(-0.0508067 -0.00413573 0)
(-0.0541708 -0.0187203 0)
(-0.0487371 -0.0414778 0)
(-0.0331145 -0.0602123 0)
(-0.0123362 -0.0561921 0)
(-0.000921725 0.0116926 0)
(-0.002736 0.0140364 0)
(-0.00470228 0.0148566 0)
(-0.00671649 0.0153677 0)
(-0.00876372 0.0157701 0)
(-0.0108609 0.0161385 0)
(-0.0130635 0.0165169 0)
(-0.015448 0.0169308 0)
(-0.0181167 0.0173828 0)
(-0.021205 0.0178408 0)
(-0.0248905 0.0182136 0)
(-0.0293874 0.018312 0)
(-0.0349373 0.0177838 0)
(-0.0418118 0.0160319 0)
(-0.0503008 0.0119248 0)
(-0.0600068 0.00266616 0)
(-0.0671717 -0.0177311 0)
(-0.0610716 -0.0535131 0)
(-0.0426862 -0.0806494 0)
(-0.0211212 -0.0826661 0)
(-0.000879126 0.013383 0)
(-0.00264373 0.0159927 0)
(-0.00456972 0.016851 0)
(-0.00652953 0.0173728 0)
(-0.00850295 0.017805 0)
(-0.0105028 0.018248 0)
(-0.0125888 0.0187702 0)
(-0.0148485 0.0194256 0)
(-0.0174017 0.0202519 0)
(-0.0204093 0.0212588 0)
(-0.0240878 0.0224032 0)
(-0.0287065 0.0235438 0)
(-0.0345769 0.0243752 0)
(-0.042139 0.0243252 0)
(-0.0522626 0.0218793 0)
(-0.064563 0.0117554 0)
(-0.0720019 -0.0172361 0)
(-0.0646281 -0.0675313 0)
(-0.044481 -0.106851 0)
(-0.0265604 -0.118798 0)
(-0.000847445 0.0150144 0)
(-0.00257117 0.0179023 0)
(-0.00445128 0.0187913 0)
(-0.00633606 0.0193012 0)
(-0.0081967 0.0197321 0)
(-0.0100385 0.0202174 0)
(-0.0119194 0.0208555 0)
(-0.0139272 0.021733 0)
(-0.0161818 0.0229267 0)
(-0.0188406 0.0244927 0)
(-0.0221147 0.0264454 0)
(-0.0262562 0.0287146 0)
(-0.0315317 0.0310854 0)
(-0.0383962 0.0329842 0)
(-0.0479394 0.0321425 0)
(-0.0592943 0.0200061 0)
(-0.0644148 -0.0177158 0)
(-0.0545572 -0.0795781 0)
(-0.0410086 -0.13429 0)
(-0.0174628 -0.156464 0)
(-0.000839072 0.0166103 0)
(-0.00254559 0.0197727 0)
(-0.00438411 0.0206678 0)
(-0.00617658 0.0211228 0)
(-0.00788388 0.021499 0)
(-0.00950223 0.0219675 0)
(-0.011083 0.022658 0)
(-0.0127038 0.0236877 0)
(-0.0144651 0.0251656 0)
(-0.01649 0.0271837 0)
(-0.01893 0.0297995 0)
(-0.02194 0.0329988 0)
(-0.0256364 0.0366304 0)
(-0.0301902 0.0399906 0)
(-0.0364678 0.0397556 0)
(-0.0439091 0.0250234 0)
(-0.0450815 -0.0179493 0)
(-0.0357034 -0.0855905 0)
(-0.0348075 -0.149279 0)
(-0.00922814 -0.186855 0)
(-0.000872297 0.018227 0)
(-0.002606 0.0216298 0)
(-0.00441944 0.0224788 0)
(-0.00610611 0.0228094 0)
(-0.0076197 0.0230518 0)
(-0.00895026 0.0234178 0)
(-0.0101424 0.0240643 0)
(-0.011257 0.0251293 0)
(-0.0123623 0.0267383 0)
(-0.0135273 0.028995 0)
(-0.0148122 0.0319628 0)
(-0.0162341 0.0356266 0)
(-0.0177464 0.0398534 0)
(-0.0190051 0.0434889 0)
(-0.020678 0.0430303 0)
(-0.0222417 0.0265856 0)
(-0.0214038 -0.0171378 0)
(-0.0142052 -0.0862639 0)
(-0.0262973 -0.153929 0)
(-0.00284328 -0.207399 0)
(-0.000981007 0.0199156 0)
(-0.00281761 0.0235114 0)
(-0.0046258 0.0242273 0)
(-0.00619059 0.0243332 0)
(-0.00746712 0.0243383 0)
(-0.00844875 0.024495 0)
(-0.0091804 0.0249794 0)
(-0.00970617 0.025935 0)
(-0.0100601 0.0274833 0)
(-0.0102555 0.0297118 0)
(-0.0102693 0.0326475 0)
(-0.01001 0.0362125 0)
(-0.00922098 0.0401565 0)
(-0.00761296 0.0430439 0)
(-0.0051819 0.0418088 0)
(-0.000579048 0.0253339 0)
(-0.000761582 -0.0166982 0)
(0.00534106 -0.0803895 0)
(-0.0172078 -0.148728 0)
(0.00451915 -0.217456 0)
(-0.00119003 0.0219267 0)
(-0.00324412 0.0255089 0)
(-0.00507197 0.0259262 0)
(-0.00648621 0.0256633 0)
(-0.00747243 0.0253044 0)
(-0.0080371 0.0251379 0)
(-0.00826066 0.025339 0)
(-0.00816033 0.0260399 0)
(-0.00774401 0.027339 0)
(-0.0069832 0.0292891 0)
(-0.00580515 0.0318566 0)
(-0.00406825 0.0348546 0)
(-0.00151274 0.0378288 0)
(0.0022195 0.0395287 0)
(0.00715433 0.0368047 0)
(0.0145459 0.0216244 0)
(0.0128846 -0.0161105 0)
(0.0192292 -0.0717467 0)
(-0.0119235 -0.139551 0)
(0.0107196 -0.221086 0)
(-0.00171177 0.0241026 0)
(-0.00405095 0.0275585 0)
(-0.00583607 0.0275038 0)
(-0.00700868 0.0267142 0)
(-0.00760101 0.0258654 0)
(-0.00767948 0.0252796 0)
(-0.00737408 0.0251111 0)
(-0.0066522 0.0254375 0)
(-0.0055103 0.0263367 0)
(-0.00389326 0.0278222 0)
(-0.00171732 0.0298046 0)
(0.00113707 0.0320245 0)
(0.00484258 0.0339103 0)
(0.00954134 0.034234 0)
(0.01502 0.0301824 0)
(0.0225624 0.0162655 0)
(0.0191333 -0.0142922 0)
(0.0264086 -0.0630763 0)
(-0.00851748 -0.131121 0)
(0.016832 -0.224226 0)
(-0.00219317 0.0275972 0)
(-0.00515443 0.0299783 0)
(-0.00681454 0.0289383 0)
(-0.00759442 0.02735 0)
(-0.00761653 0.0259022 0)
(-0.00720652 0.0248914 0)
(-0.00634213 0.0243098 0)
(-0.00502963 0.0241949 0)
(-0.00324146 0.0246 0)
(-0.000907923 0.0255104 0)
(0.00205471 0.0268277 0)
(0.00571012 0.0282614 0)
(0.0100688 0.029242 0)
(0.0150689 0.0286239 0)
(0.0200505 0.0242583 0)
(0.0264165 0.0120988 0)
(0.0214426 -0.0119606 0)
(0.0303827 -0.0561624 0)
(-0.00843879 -0.125911 0)
(0.0225179 -0.227286 0)
(-0.00453073 0.0298315 0)
(-0.00779799 0.0310019 0)
(-0.00806771 0.0293452 0)
(-0.0077119 0.0271292 0)
(-0.00701325 0.0252671 0)
(-0.00591667 0.0238347 0)
(-0.00440408 0.0228504 0)
(-0.00249497 0.0223289 0)
(-0.000119312 0.0222603 0)
(0.00281399 0.0226142 0)
(0.00637571 0.0233201 0)
(0.0106062 0.0241013 0)
(0.0154242 0.0245048 0)
(0.0206342 0.0235201 0)
(0.0250233 0.0196845 0)
(0.0304199 0.00957476 0)
(0.0245727 -0.00970092 0)
(0.0350642 -0.04942 0)
(-0.009684 -0.120219 0)
(0.0304655 -0.225247 0)
(-0.00668768 0.0479027 0)
(-0.00948773 0.039786 0)
(-0.00727988 0.0337698 0)
(-0.00545234 0.0291366 0)
(-0.00349499 0.0262788 0)
(-0.00112474 0.0239853 0)
(0.00160696 0.0221994 0)
(0.00470677 0.0209009 0)
(0.00821077 0.0200537 0)
(0.0122347 0.0195792 0)
(0.0167876 0.0194618 0)
(0.0220226 0.0194101 0)
(0.0274602 0.01934 0)
(0.0335028 0.0183181 0)
(0.0375841 0.0157882 0)
(0.0429239 0.00819437 0)
(0.0375245 -0.00655403 0)
(0.0481172 -0.0414747 0)
(-0.000956943 -0.10724 0)
(0.0454648 -0.203284 0)
(-0.00330921 0.0240516 0)
(-0.00927506 0.0112286 0)
(0.000805424 0.0121029 0)
(0.00753424 0.013675 0)
(0.0153922 0.013746 0)
(0.0229683 0.0132 0)
(0.0302016 0.0126225 0)
(0.0372228 0.0121634 0)
(0.043989 0.0118608 0)
(0.0509192 0.0116196 0)
(0.0575285 0.0115367 0)
(0.0649745 0.011428 0)
(0.0711797 0.0113799 0)
(0.0795655 0.0106582 0)
(0.0840068 0.00920961 0)
(0.0919738 0.00411509 0)
(0.0902904 -0.00548385 0)
(0.0946996 -0.030931 0)
(0.0468784 -0.0764276 0)
(0.0830615 -0.152317 0)
(0.0521942 0.0997209 0)
(0.0602445 0.0615922 0)
(0.0903442 0.0386476 0)
(0.110772 0.0279087 0)
(0.126329 0.0217864 0)
(0.139844 0.0177489 0)
(0.152085 0.0148368 0)
(0.163651 0.0126562 0)
(0.173954 0.0110229 0)
(0.184328 0.00960817 0)
(0.193005 0.00874211 0)
(0.202827 0.00760572 0)
(0.210009 0.00736434 0)
(0.219124 0.00595576 0)
(0.224341 0.00617743 0)
(0.230885 0.00299919 0)
(0.229611 2.41005e-06 0)
(0.220805 -0.00664911 0)
(0.17604 -0.0197396 0)
(0.166761 -0.116442 0)
)
;

boundaryField
{
    movingWall
    {
        type            fixedValue;
        value           uniform (1 0 0);
    }
    fixedWalls
    {
        type            noSlip;
    }
    frontAndBack
    {
        type            empty;
    }
}


// ************************************************************************* //
