/*--------------------------------*- C++ -*----------------------------------*\
| =========                 |                                                 |
| \\      /  F ield         | OpenFOAM: The Open Source CFD Toolbox           |
|  \\    /   O peration     | Version:  4.1                                   |
|   \\  /    A nd           | Web:      www.OpenFOAM.org                      |
|    \\/     M anipulation  |                                                 |
\*---------------------------------------------------------------------------*/
FoamFile
{
    version     2.0;
    format      ascii;
    class       volScalarField;
    location    "1.5";
    object      epsilon;
}
// * * * * * * * * * * * * * * * * * * * * * * * * * * * * * * * * * * * * * //

dimensions      [0 2 -3 0 0 0 0];

internalField   nonuniform List<scalar> 
400
(
0.000128611
0.000230643
0.000358131
0.000483899
0.000608822
0.000739778
0.000885538
0.00105449
0.00125164
0.00147336
0.00170192
0.00189265
0.00198247
0.00199711
0.00183809
0.00157802
0.00124416
0.000906494
0.000564513
0.000389006
0.000224663
0.000224117
0.000285732
0.00034418
0.00039513
0.000443171
0.000493103
0.000548781
0.000610807
0.000673868
0.00071608
0.000730544
0.000713045
0.00070285
0.000730068
0.000920717
0.00126232
0.00155414
0.00166142
0.00154255
0.000371726
0.000272224
0.000307802
0.000351684
0.000389198
0.000419882
0.000448984
0.000478811
0.000508934
0.000536583
0.000560255
0.000588927
0.000647983
0.000790977
0.00113882
0.00186938
0.00288415
0.00376282
0.00461604
0.0050178
0.000518812
0.000328605
0.000342866
0.000376108
0.000406373
0.00043368
0.00046017
0.000488174
0.000517763
0.000548654
0.000586079
0.000651362
0.000804054
0.00117176
0.00188216
0.00287685
0.00385807
0.0052204
0.00802978
0.0109297
0.000657589
0.000377461
0.000374777
0.000402799
0.000431337
0.000458143
0.000485148
0.000514807
0.000549731
0.000594529
0.000664493
0.00079695
0.00106279
0.0015345
0.00223816
0.00304583
0.00384874
0.00537563
0.00918371
0.0164012
0.000784491
0.000417563
0.000401384
0.000424931
0.000452578
0.000480182
0.000509917
0.000545233
0.000590518
0.000653618
0.00075274
0.000921463
0.00120151
0.00160123
0.00214802
0.00272999
0.00327809
0.00479158
0.00924689
0.0197117
0.000897394
0.000450586
0.000422178
0.000441749
0.000468642
0.000497121
0.000529357
0.000569501
0.000622945
0.000698073
0.000808824
0.000969284
0.00118532
0.00150102
0.00188435
0.00223657
0.00266064
0.00412786
0.00880091
0.0221646
0.000995355
0.000477568
0.000437721
0.0004535
0.000479384
0.000508226
0.000541936
0.000584841
0.000642367
0.000721374
0.000827477
0.000957397
0.00112185
0.00131185
0.00155578
0.00182868
0.00228328
0.00379452
0.00846275
0.0241575
0.0010784
0.000499473
0.000448892
0.000460868
0.000485296
0.000513743
0.00054764
0.000590938
0.000648046
0.0007233
0.000819267
0.000926023
0.00101675
0.0011196
0.00127798
0.00151455
0.00203305
0.00367355
0.00835589
0.0257292
0.00114774
0.000517246
0.000456663
0.000464787
0.000487466
0.000514678
0.000547307
0.000589002
0.000643657
0.000714229
0.000798352
0.000879636
0.000933899
0.000976171
0.00107911
0.00130753
0.0019056
0.00366525
0.00860392
0.0275061
0.00120525
0.00053179
0.000461983
0.000466243
0.000486653
0.000512438
0.00054369
0.000582974
0.00063308
0.000695322
0.000766728
0.000834332
0.000876591
0.000895016
0.000972234
0.00120475
0.00185597
0.00374404
0.00907232
0.0293763
0.0012549
0.000544002
0.000465719
0.000466242
0.000484318
0.000507943
0.000536859
0.000572952
0.000617964
0.000672168
0.000732581
0.000789815
0.000829618
0.00085107
0.000925647
0.00115876
0.00183298
0.00380357
0.0097595
0.0317652
0.00129948
0.000554643
0.000468791
0.000466304
0.000482146
0.000503697
0.000530351
0.000563194
0.000603095
0.000649549
0.000699734
0.000747264
0.000783859
0.000811889
0.000889717
0.00111582
0.00177085
0.00380755
0.0106076
0.0348323
0.00135164
0.000565186
0.000472175
0.000467477
0.000482457
0.000503546
0.00052883
0.000558938
0.000594044
0.000633019
0.000673135
0.000710511
0.000740197
0.000767577
0.000838941
0.00104112
0.00163804
0.00367139
0.0114532
0.0388298
0.00140608
0.000575629
0.000478548
0.00047321
0.000488462
0.000510119
0.000535647
0.00056512
0.00059836
0.000633898
0.000667396
0.00069514
0.00071473
0.000733105
0.000786475
0.000953439
0.00147733
0.00360903
0.0129605
0.0443206
0.0015052
0.000592874
0.000496832
0.0004966
0.000517285
0.000543745
0.000572986
0.000604685
0.000638191
0.000671952
0.000702643
0.000726797
0.000741308
0.00075204
0.00078761
0.000916638
0.00139319
0.00372445
0.0152838
0.0518969
0.00159537
0.000644426
0.000574979
0.000603531
0.000649064
0.000697455
0.000746224
0.000795183
0.000842492
0.000887948
0.000925617
0.000955775
0.000970952
0.000980996
0.00100633
0.00111921
0.0016155
0.00457881
0.0193991
0.0629921
0.00193134
0.000988187
0.00114699
0.00134943
0.00153715
0.00171289
0.00187553
0.00203099
0.002167
0.00230195
0.00240287
0.00251289
0.00256888
0.00265849
0.0027229
0.00291919
0.003848
0.00901676
0.0298173
0.0808277
0.00314819
0.00541942
0.0085431
0.0107154
0.0123212
0.0136214
0.0146798
0.0155984
0.0162895
0.016958
0.0173773
0.0179672
0.0182091
0.0187771
0.0191296
0.0200017
0.0235894
0.0366382
0.0700092
0.116144
0.0408511
0.0831611
0.124017
0.149316
0.16478
0.174338
0.180155
0.183322
0.184731
0.184627
0.183986
0.183001
0.180979
0.179872
0.178355
0.17896
0.18084
0.184144
0.195893
0.164647
)
;

boundaryField
{
    movingWall
    {
        Cmu             0.09;
        kappa           0.41;
        E               9.8;
        type            epsilonWallFunction;
        value           nonuniform List<scalar> 
20
(
0.0408511
0.0831611
0.124017
0.149316
0.16478
0.174338
0.180155
0.183322
0.184731
0.184627
0.183986
0.183001
0.180979
0.179872
0.178355
0.17896
0.18084
0.184144
0.195893
0.164647
)
;
    }
    fixedWalls
    {
        Cmu             0.09;
        kappa           0.41;
        E               9.8;
        type            epsilonWallFunction;
        value           nonuniform List<scalar> 
60
(
0.000128611
0.000224663
0.000371726
0.000518812
0.000657589
0.000784491
0.000897394
0.000995355
0.0010784
0.00114774
0.00120525
0.0012549
0.00129948
0.00135164
0.00140608
0.0015052
0.00159537
0.00193134
0.00314819
0.0408511
0.000389006
0.00154255
0.0050178
0.0109297
0.0164012
0.0197117
0.0221646
0.0241575
0.0257292
0.0275061
0.0293763
0.0317652
0.0348323
0.0388298
0.0443206
0.0518969
0.0629921
0.0808277
0.116144
0.164647
0.000128611
0.000230643
0.000358131
0.000483899
0.000608822
0.000739778
0.000885538
0.00105449
0.00125164
0.00147336
0.00170192
0.00189265
0.00198247
0.00199711
0.00183809
0.00157802
0.00124416
0.000906494
0.000564513
0.000389006
)
;
    }
    frontAndBack
    {
        type            empty;
    }
}


// ************************************************************************* //
