/*--------------------------------*- C++ -*----------------------------------*\
| =========                 |                                                 |
| \\      /  F ield         | OpenFOAM: The Open Source CFD Toolbox           |
|  \\    /   O peration     | Version:  4.1                                   |
|   \\  /    A nd           | Web:      www.OpenFOAM.org                      |
|    \\/     M anipulation  |                                                 |
\*---------------------------------------------------------------------------*/
FoamFile
{
    version     2.0;
    format      ascii;
    class       volScalarField;
    location    "1.5";
    object      k;
}
// * * * * * * * * * * * * * * * * * * * * * * * * * * * * * * * * * * * * * //

dimensions      [0 2 -2 0 0 0 0];

internalField   nonuniform List<scalar> 
400
(
8.59946e-05
0.000126997
0.000170425
0.000208459
0.000243148
0.000277124
0.000312746
0.000351771
0.000394848
0.000440734
0.000485712
0.000521733
0.000538257
0.000540935
0.000511662
0.000462228
0.000394867
0.000320454
0.000234275
0.000182617
0.00012476
0.000213897
0.000275502
0.000315967
0.000343209
0.00036271
0.00037876
0.00039599
0.000416071
0.000437417
0.000453101
0.000458733
0.000459268
0.000455947
0.000458959
0.000488134
0.000539715
0.000560893
0.000522408
0.000460878
0.000174671
0.000302607
0.000384489
0.00043702
0.000471827
0.00049593
0.000513905
0.000527347
0.000536968
0.000541045
0.00054211
0.000538368
0.000535121
0.000541129
0.000588795
0.000717892
0.000907714
0.00100376
0.00105484
0.00101012
0.000218288
0.000369154
0.000465877
0.000528432
0.000571013
0.00060142
0.000625071
0.000644879
0.000659254
0.000663948
0.000661532
0.000646966
0.000637301
0.000646665
0.000740758
0.000943165
0.00110688
0.00124218
0.00151062
0.00168543
0.00025579
0.000419533
0.000527392
0.00059782
0.000646872
0.000683187
0.000712565
0.000738004
0.000756086
0.000761411
0.000753948
0.000724479
0.000703807
0.000709627
0.000823451
0.00100722
0.00111904
0.001276
0.00164908
0.0021956
0.000287836
0.000457061
0.000573256
0.000650173
0.000704724
0.000746115
0.000780375
0.000810312
0.000830941
0.000836176
0.000821611
0.000773167
0.00072833
0.000722093
0.000825378
0.00099471
0.00109197
0.00126762
0.00166416
0.00247541
0.000314922
0.000484332
0.00060652
0.000688582
0.00074762
0.000793124
0.000831205
0.000864428
0.000886689
0.000891358
0.000868685
0.000798938
0.000725439
0.000708833
0.000792592
0.000954218
0.00107558
0.00127514
0.00166737
0.00267533
0.000337508
0.0005035
0.000629622
0.000715465
0.000777883
0.000826412
0.000867115
0.000902333
0.000925874
0.000930594
0.000903483
0.000820811
0.000717833
0.000682249
0.000735965
0.000891752
0.0010611
0.00131044
0.00169272
0.00283129
0.000356068
0.00051639
0.000644681
0.000732962
0.000797599
0.000848043
0.000890234
0.000926372
0.000951189
0.000957011
0.000930526
0.000848367
0.000724023
0.000657753
0.000678546
0.000817344
0.00104957
0.00136244
0.00175876
0.0029526
0.000371182
0.000524589
0.000653613
0.00074309
0.000808837
0.000860189
0.000902953
0.000939273
0.000965292
0.000973262
0.00095178
0.000879751
0.000752902
0.000664608
0.00066211
0.000783876
0.0010508
0.00142477
0.00185136
0.00308693
0.000383462
0.000529527
0.000658169
0.000747776
0.000813666
0.000865072
0.000907667
0.000943664
0.000970638
0.000981702
0.000967389
0.000912924
0.000809821
0.000700148
0.00069259
0.000799538
0.00107451
0.00145705
0.00192254
0.00322516
0.000393878
0.000532493
0.000659951
0.000748774
0.00081393
0.000864799
0.000907029
0.000942745
0.000970172
0.000983953
0.000976673
0.000939777
0.00086479
0.000772235
0.000762196
0.000860896
0.00111529
0.00146861
0.00200691
0.00339836
0.000403082
0.000534781
0.000660512
0.000748133
0.000812478
0.000862666
0.000904243
0.000939501
0.000967285
0.000982949
0.000980623
0.000957162
0.000905701
0.000840159
0.000838143
0.000921088
0.00112652
0.0014385
0.00207222
0.00361363
0.000413713
0.000537507
0.000661185
0.000746959
0.000809693
0.000858619
0.000899227
0.000933821
0.00096161
0.00097909
0.00098015
0.000965021
0.000929013
0.000882602
0.000881604
0.000942194
0.00109431
0.00134305
0.00212755
0.00388553
0.000424651
0.00054197
0.000662794
0.000745951
0.000806425
0.000853484
0.000892528
0.000925895
0.000953043
0.000970982
0.00097497
0.000963538
0.000935134
0.000896463
0.00088483
0.000921148
0.0010124
0.00121935
0.00223076
0.00424389
0.000444293
0.000547355
0.000664917
0.000744106
0.000801044
0.000845086
0.000881608
0.000913066
0.000939121
0.000957143
0.0009627
0.000954507
0.000930286
0.000891215
0.000862001
0.0008694
0.000902952
0.00113113
0.00239234
0.00471451
0.00046182
0.000558142
0.000667786
0.00073912
0.00078967
0.000829477
0.000863704
0.00089448
0.000921339
0.000942286
0.000952342
0.000948599
0.000930596
0.000893203
0.000849055
0.000819043
0.000830091
0.00110563
0.002671
0.00536489
0.000524616
0.000593249
0.000702468
0.000770138
0.000821723
0.000865103
0.000904003
0.000941144
0.00097471
0.00100573
0.00102622
0.00103772
0.00103289
0.00101906
0.000987044
0.000956089
0.000998619
0.00146518
0.00339204
0.00633473
0.000727042
0.000972279
0.001282
0.00148003
0.0016284
0.00175369
0.00186103
0.00196066
0.00204077
0.00212346
0.00217995
0.00225435
0.00228824
0.0023581
0.00239636
0.00248299
0.00274996
0.00361718
0.00587186
0.00806658
0.00401906
0.00645595
0.00842683
0.00953711
0.0101847
0.0105748
0.0108087
0.010935
0.0109909
0.0109867
0.0109613
0.0109222
0.0108417
0.0107975
0.0107368
0.0107611
0.0108364
0.010968
0.0114298
0.0101796
)
;

boundaryField
{
    movingWall
    {
        type            kqRWallFunction;
        value           nonuniform List<scalar> 
20
(
0.00401906
0.00645595
0.00842683
0.00953711
0.0101847
0.0105748
0.0108087
0.010935
0.0109909
0.0109867
0.0109613
0.0109222
0.0108417
0.0107975
0.0107368
0.0107611
0.0108364
0.010968
0.0114298
0.0101796
)
;
    }
    fixedWalls
    {
        type            kqRWallFunction;
        value           nonuniform List<scalar> 
60
(
8.59946e-05
0.00012476
0.000174671
0.000218288
0.00025579
0.000287836
0.000314922
0.000337508
0.000356068
0.000371182
0.000383462
0.000393878
0.000403082
0.000413713
0.000424651
0.000444293
0.00046182
0.000524616
0.000727042
0.00401906
0.000182617
0.000460878
0.00101012
0.00168543
0.0021956
0.00247541
0.00267533
0.00283129
0.0029526
0.00308693
0.00322516
0.00339836
0.00361363
0.00388553
0.00424389
0.00471451
0.00536489
0.00633473
0.00806658
0.0101796
8.59946e-05
0.000126997
0.000170425
0.000208459
0.000243148
0.000277124
0.000312746
0.000351771
0.000394848
0.000440734
0.000485712
0.000521733
0.000538257
0.000540935
0.000511662
0.000462228
0.000394867
0.000320454
0.000234275
0.000182617
)
;
    }
    frontAndBack
    {
        type            empty;
    }
}


// ************************************************************************* //
