/*--------------------------------*- C++ -*----------------------------------*\
| =========                 |                                                 |
| \\      /  F ield         | OpenFOAM: The Open Source CFD Toolbox           |
|  \\    /   O peration     | Version:  4.1                                   |
|   \\  /    A nd           | Web:      www.OpenFOAM.org                      |
|    \\/     M anipulation  |                                                 |
\*---------------------------------------------------------------------------*/
FoamFile
{
    version     2.0;
    format      ascii;
    class       volScalarField;
    location    "1.5";
    object      nut;
}
// * * * * * * * * * * * * * * * * * * * * * * * * * * * * * * * * * * * * * //

dimensions      [0 2 -1 0 0 0 0];

internalField   nonuniform List<scalar> 
400
(
5.17496e-06
6.29349e-06
7.29908e-06
8.08218e-06
8.73967e-06
9.34308e-06
9.94076e-06
1.05613e-05
1.12104e-05
1.18655e-05
1.24756e-05
1.2944e-05
1.31527e-05
1.31865e-05
1.28186e-05
1.21855e-05
1.12789e-05
1.01955e-05
8.75023e-06
7.71557e-06
6.23532e-06
1.83729e-05
2.39075e-05
2.61059e-05
2.683e-05
2.67171e-05
2.61838e-05
2.57166e-05
2.55078e-05
2.5554e-05
2.5803e-05
2.59248e-05
2.66231e-05
2.66201e-05
2.59673e-05
2.32914e-05
2.07683e-05
1.82185e-05
1.47837e-05
1.2393e-05
7.38686e-06
3.02742e-05
4.32255e-05
4.88756e-05
5.14798e-05
5.27177e-05
5.29392e-05
5.22723e-05
5.09891e-05
4.90989e-05
4.72097e-05
4.42935e-05
3.97726e-05
3.33182e-05
2.73978e-05
2.48121e-05
2.57112e-05
2.40983e-05
2.16944e-05
1.83011e-05
8.2659e-06
3.73237e-05
5.69718e-05
6.68202e-05
7.2212e-05
7.50636e-05
7.64157e-05
7.66698e-05
7.5547e-05
7.23122e-05
6.72029e-05
5.7834e-05
4.54619e-05
3.21191e-05
2.62385e-05
2.78292e-05
2.85808e-05
2.66017e-05
2.55771e-05
2.33914e-05
8.95476e-06
4.19665e-05
6.6794e-05
7.98538e-05
8.73098e-05
9.16897e-05
9.41928e-05
9.52173e-05
9.35911e-05
8.77623e-05
7.699e-05
5.92739e-05
4.1947e-05
2.9535e-05
2.72663e-05
2.9977e-05
2.92832e-05
2.72592e-05
2.66508e-05
2.64528e-05
9.50486e-06
4.50266e-05
7.36851e-05
8.95328e-05
9.87612e-05
0.000104339
0.000107485
0.000108384
0.000105232
9.6275e-05
8.07105e-05
5.83863e-05
3.97348e-05
2.93072e-05
2.85437e-05
3.26193e-05
3.27373e-05
3.01815e-05
2.69549e-05
2.79777e-05
9.94638e-06
4.68544e-05
7.84217e-05
9.66003e-05
0.000107341
0.000113884
0.000117465
0.000118088
0.000113589
0.000102435
8.39678e-05
5.92676e-05
3.99584e-05
3.01261e-05
3.00041e-05
3.664e-05
3.91328e-05
3.54512e-05
2.84302e-05
2.90627e-05
1.02999e-05
4.77756e-05
8.15089e-05
0.000101588
0.000113602
0.000120943
0.000124867
0.000125296
0.000120105
0.000108044
8.87822e-05
6.3334e-05
4.13386e-05
3.19334e-05
3.13334e-05
3.91375e-05
4.43808e-05
4.07304e-05
3.0472e-05
2.98648e-05
1.0581e-05
4.80492e-05
8.33279e-05
0.000104913
0.000117979
0.000125989
0.000130243
0.000130699
0.000125652
0.000113962
9.51206e-05
6.99501e-05
4.64017e-05
3.47779e-05
3.24248e-05
3.96979e-05
4.87656e-05
4.5477e-05
3.33167e-05
3.04949e-05
1.08037e-05
4.78832e-05
8.41954e-05
0.000106923
0.000120787
0.000129388
0.000134073
0.000134806
0.000130288
0.000119362
0.000102122
7.91879e-05
5.46285e-05
4.07237e-05
3.65628e-05
4.22949e-05
5.21493e-05
4.98457e-05
3.58533e-05
3.11794e-05
1.09802e-05
4.74546e-05
8.43899e-05
0.000107938
0.000122438
0.000131433
0.000136378
0.000137476
0.000133936
0.000124743
0.000109851
8.99027e-05
6.73324e-05
4.92937e-05
4.44042e-05
4.77557e-05
5.59883e-05
5.10327e-05
3.66669e-05
3.18674e-05
1.11264e-05
4.69105e-05
8.4167e-05
0.000108226
0.000123108
0.000132513
0.000137919
0.000139609
0.000137081
0.000129632
0.000117188
0.000100639
8.11308e-05
6.30633e-05
5.64846e-05
5.75639e-05
6.10744e-05
5.10348e-05
3.71426e-05
3.27213e-05
1.12528e-05
4.64067e-05
8.37576e-05
0.000108027
0.000123222
0.000132971
0.000138755
0.000141052
0.000139626
0.000133873
0.000123684
0.000110342
9.41834e-05
7.82471e-05
7.10602e-05
6.84306e-05
6.44965e-05
4.8912e-05
3.64333e-05
3.37401e-05
1.13967e-05
4.60066e-05
8.3327e-05
0.000107418
0.000122299
0.000131766
0.000137615
0.000140413
0.000140095
0.000136292
0.000128447
0.000117963
0.000104939
9.13377e-05
8.33793e-05
7.67403e-05
6.57964e-05
4.42179e-05
3.55693e-05
3.49927e-05
1.15425e-05
4.59251e-05
8.26179e-05
0.00010583
0.000119823
0.000128517
0.000133847
0.000136529
0.000136617
0.000133858
0.000128186
0.000120201
0.000110115
9.86599e-05
8.95937e-05
8.00956e-05
6.24402e-05
3.70772e-05
3.45564e-05
3.65734e-05
1.18029e-05
4.54797e-05
8.00882e-05
0.000100347
0.000111641
0.000118209
0.000122081
0.000124085
0.000124376
0.000122704
0.000118711
0.00011282
0.00010507
9.50531e-05
8.49076e-05
7.42137e-05
5.26698e-05
3.09175e-05
3.37022e-05
3.85455e-05
1.20317e-05
4.3507e-05
6.98015e-05
8.14652e-05
8.64662e-05
8.8784e-05
8.99711e-05
9.0556e-05
9.06809e-05
8.99956e-05
8.81855e-05
8.47329e-05
8.02726e-05
7.3194e-05
6.44721e-05
5.39439e-05
3.83873e-05
2.40276e-05
3.30984e-05
4.11224e-05
1.28253e-05
3.20536e-05
3.87201e-05
3.95575e-05
3.95345e-05
3.93233e-05
3.92155e-05
3.92506e-05
3.94579e-05
3.95467e-05
3.94453e-05
3.85686e-05
3.73769e-05
3.51567e-05
3.22021e-05
2.81823e-05
2.33242e-05
2.14275e-05
3.47293e-05
4.46826e-05
1.51113e-05
1.5699e-05
1.73143e-05
1.83983e-05
1.93691e-05
2.03202e-05
2.12337e-05
2.21803e-05
2.30104e-05
2.39309e-05
2.46123e-05
2.54568e-05
2.58795e-05
2.66524e-05
2.70173e-05
2.77413e-05
2.88522e-05
3.21401e-05
4.43241e-05
5.04227e-05
3.55868e-05
4.51069e-05
5.15336e-05
5.4824e-05
5.66549e-05
5.77295e-05
5.8364e-05
5.87036e-05
5.88529e-05
5.88417e-05
5.87736e-05
5.86689e-05
5.84531e-05
5.83342e-05
5.81713e-05
5.82371e-05
5.84411e-05
5.87951e-05
6.00203e-05
5.66431e-05
)
;

boundaryField
{
    movingWall
    {
        type            nutkWallFunction;
        Cmu             0.09;
        kappa           0.41;
        E               9.8;
        value           nonuniform List<scalar> 
20
(
0
0
7.06277e-07
1.2452e-06
1.54296e-06
1.71708e-06
1.81971e-06
1.87459e-06
1.89876e-06
1.89697e-06
1.88598e-06
1.86903e-06
1.83407e-06
1.81481e-06
1.78829e-06
1.79891e-06
1.83178e-06
1.88888e-06
2.08617e-06
1.54063e-06
)
;
    }
    fixedWalls
    {
        type            nutkWallFunction;
        Cmu             0.09;
        kappa           0.41;
        E               9.8;
        value           nonuniform List<scalar> 
60
(
0
0
0
0
0
0
0
0
0
0
0
0
0
0
0
0
0
0
0
0
0
0
0
0
0
0
0
0
0
0
0
0
0
0
0
0
0
0
5.22684e-07
1.54063e-06
0
0
0
0
0
0
0
0
0
0
0
0
0
0
0
0
0
0
0
0
)
;
    }
    frontAndBack
    {
        type            empty;
    }
}


// ************************************************************************* //
