/*--------------------------------*- C++ -*----------------------------------*\
| =========                 |                                                 |
| \\      /  F ield         | OpenFOAM: The Open Source CFD Toolbox           |
|  \\    /   O peration     | Version:  4.1                                   |
|   \\  /    A nd           | Web:      www.OpenFOAM.org                      |
|    \\/     M anipulation  |                                                 |
\*---------------------------------------------------------------------------*/
FoamFile
{
    version     2.0;
    format      ascii;
    class       volScalarField;
    location    "1.5";
    object      p;
}
// * * * * * * * * * * * * * * * * * * * * * * * * * * * * * * * * * * * * * //

dimensions      [0 2 -2 0 0 0 0];

internalField   nonuniform List<scalar> 
400
(
-5.78793e-09
-9.82341e-06
-8.8181e-06
2.14203e-06
2.36996e-05
5.64759e-05
0.000101569
0.000160468
0.000235411
0.000330788
0.000456282
0.000629358
0.000876857
0.00126852
0.00194972
0.00297065
0.00420259
0.00540019
0.00618088
0.00639646
8.87117e-06
-2.65283e-06
-1.16372e-06
1.1327e-05
3.3409e-05
6.49329e-05
0.000106293
0.000157866
0.00022024
0.000295289
0.000388322
0.000510344
0.000690479
0.00101302
0.00161629
0.00257271
0.0038209
0.00507709
0.00596948
0.00630241
-6.45505e-07
-1.92927e-05
-2.25782e-05
-1.24367e-05
6.37179e-06
3.15572e-05
6.18978e-05
9.57092e-05
0.000130571
0.000163351
0.000192232
0.00021742
0.000257141
0.000399041
0.000818623
0.0016467
0.00286949
0.0042631
0.0054437
0.00601093
-3.65041e-05
-6.45569e-05
-7.7946e-05
-7.62792e-05
-6.69832e-05
-5.53675e-05
-4.52813e-05
-4.15445e-05
-5.09272e-05
-8.30513e-05
-0.000149045
-0.000267293
-0.000451209
-0.000638158
-0.000597006
-5.99572e-05
0.00104973
0.00259562
0.00418973
0.00503239
-0.0001037
-0.000140225
-0.000166071
-0.000178072
-0.000184917
-0.000194889
-0.0002149
-0.00025363
-0.000323444
-0.000441583
-0.000630773
-0.000937263
-0.0014283
-0.00207277
-0.00257104
-0.00245416
-0.0015235
8.6747e-05
0.0019607
0.00301132
-0.000200379
-0.000242535
-0.000279983
-0.000307677
-0.000334459
-0.000370894
-0.000426971
-0.000515536
-0.000654927
-0.000870828
-0.00119973
-0.00171457
-0.00253355
-0.0036477
-0.00470967
-0.00497424
-0.00423322
-0.00273129
-0.000820251
0.000399548
-0.000320119
-0.000364945
-0.000411519
-0.000454037
-0.000500919
-0.000564216
-0.000656402
-0.000793812
-0.000999668
-0.00130726
-0.00176558
-0.00245416
-0.00352309
-0.00495639
-0.00635212
-0.00683402
-0.00628578
-0.00499544
-0.00341282
-0.00207936
-0.000454517
-0.00049945
-0.000552061
-0.000606661
-0.000670871
-0.000757277
-0.000879701
-0.0010564
-0.00131271
-0.0016849
-0.00222969
-0.00302419
-0.00418276
-0.00569243
-0.00719195
-0.00776125
-0.00737461
-0.00630833
-0.00511793
-0.00388855
-0.000595091
-0.000637961
-0.000693315
-0.000756017
-0.000832675
-0.00093547
-0.00107824
-0.0012792
-0.00156303
-0.00196385
-0.00252948
-0.00333421
-0.00443848
-0.00581953
-0.00723683
-0.00778348
-0.00752502
-0.00665375
-0.00584977
-0.00480822
-0.000734345
-0.00077362
-0.000828364
-0.000894477
-0.000977473
-0.00108841
-0.00124002
-0.00144868
-0.00173577
-0.00212959
-0.0026665
-0.00339697
-0.00434589
-0.00548253
-0.006595
-0.00708034
-0.00695151
-0.00625483
-0.00584726
-0.00498981
-0.000866832
-0.000901406
-0.000952345
-0.00101693
-0.00109986
-0.0012107
-0.00136042
-0.00156245
-0.00183304
-0.00219319
-0.0026651
-0.00327355
-0.00401904
-0.00484991
-0.00561761
-0.0060101
-0.00597187
-0.00543175
-0.00533816
-0.00457262
-0.000989576
-0.00101841
-0.00106253
-0.0011207
-0.00119756
-0.0013011
-0.00144052
-0.00162633
-0.00186731
-0.00218067
-0.00257389
-0.00305148
-0.00360013
-0.00416609
-0.00465795
-0.00491919
-0.0049104
-0.00443461
-0.00457894
-0.00379127
-0.00110257
-0.00112439
-0.00115846
-0.00120514
-0.00127056
-0.00136093
-0.00148411
-0.00164756
-0.00185802
-0.00212219
-0.00244104
-0.00280766
-0.0032017
-0.00357765
-0.00388041
-0.0040157
-0.00399667
-0.00348313
-0.00384429
-0.0028087
-0.00120807
-0.00122055
-0.00124116
-0.00127295
-0.00132082
-0.00139308
-0.00149698
-0.00163721
-0.00181733
-0.00203894
-0.00229813
-0.00258289
-0.00287038
-0.00312176
-0.0032958
-0.00332649
-0.00328455
-0.00266245
-0.0032126
-0.00178841
-0.00131356
-0.0013139
-0.00131542
-0.0013229
-0.00134708
-0.00139885
-0.00148251
-0.00160053
-0.00175419
-0.00194224
-0.00215826
-0.00238795
-0.00260803
-0.0027824
-0.00287398
-0.00282025
-0.00275207
-0.00200081
-0.00272673
-0.000927749
-0.00142843
-0.00140174
-0.00137763
-0.00135049
-0.00134561
-0.0013733
-0.00143606
-0.00153365
-0.00166571
-0.00182925
-0.00201722
-0.00221426
-0.00239776
-0.00253066
-0.00257678
-0.0024586
-0.00236958
-0.0014726
-0.00238876
-8.89959e-05
-0.00156944
-0.00149254
-0.00142567
-0.00135254
-0.00131352
-0.0013121
-0.00135145
-0.00142848
-0.00154215
-0.00168852
-0.0018617
-0.00204528
-0.00221783
-0.00233659
-0.00237159
-0.00223692
-0.00208879
-0.00101005
-0.00191334
0.0020077
-0.00160453
-0.00137678
-0.00130289
-0.00123125
-0.00119392
-0.00119059
-0.00122138
-0.00128823
-0.00139303
-0.00153098
-0.00169915
-0.00187989
-0.00205795
-0.00218386
-0.00222638
-0.0020719
-0.00175127
-0.000419113
-3.86551e-05
0.00883267
-0.00353168
-0.00270622
-0.00217152
-0.00169777
-0.00144787
-0.00132287
-0.00128183
-0.00129988
-0.00137126
-0.0014829
-0.00163624
-0.00180507
-0.00198407
-0.00211448
-0.00216364
-0.00194345
-0.00112652
0.0012414
0.00526011
0.0217824
0.000923635
0.00185938
0.000727963
-6.26869e-07
-0.000343827
-0.000531908
-0.000687951
-0.000843298
-0.00101016
-0.00119178
-0.00138996
-0.00159718
-0.00177517
-0.00186253
-0.00169514
-0.00108418
0.000696222
0.00502098
0.0138402
0.0320914
)
;

boundaryField
{
    movingWall
    {
        type            zeroGradient;
    }
    fixedWalls
    {
        type            zeroGradient;
    }
    frontAndBack
    {
        type            empty;
    }
}


// ************************************************************************* //
