/*--------------------------------*- C++ -*----------------------------------*\
| =========                 |                                                 |
| \\      /  F ield         | OpenFOAM: The Open Source CFD Toolbox           |
|  \\    /   O peration     | Version:  4.1                                   |
|   \\  /    A nd           | Web:      www.OpenFOAM.org                      |
|    \\/     M anipulation  |                                                 |
\*---------------------------------------------------------------------------*/
FoamFile
{
    version     2.0;
    format      ascii;
    class       surfaceScalarField;
    location    "1.5";
    object      phi;
}
// * * * * * * * * * * * * * * * * * * * * * * * * * * * * * * * * * * * * * //

dimensions      [0 3 -1 0 0 0 0];

internalField   nonuniform List<scalar> 
760
(
-4.10748e-08
4.10754e-08
-1.44641e-07
1.03566e-07
-2.8868e-07
1.44039e-07
-4.55238e-07
1.66558e-07
-6.37967e-07
1.82729e-07
-8.37787e-07
1.9982e-07
-1.0588e-06
2.21018e-07
-1.30615e-06
2.47345e-07
-1.58411e-06
2.77965e-07
-1.89384e-06
3.09727e-07
-2.2304e-06
3.36554e-07
-2.57586e-06
3.45466e-07
-2.88977e-06
3.13912e-07
-3.1107e-06
2.20924e-07
-3.17801e-06
6.73096e-08
-2.94976e-06
-2.2825e-07
-2.37481e-06
-5.74951e-07
-1.51478e-06
-8.60031e-07
-6.00019e-07
-9.14756e-07
-6.00019e-07
-1.00077e-07
1.41152e-07
-2.5147e-07
2.5496e-07
-4.32033e-07
3.24602e-07
-6.35081e-07
3.69607e-07
-8.59087e-07
4.06734e-07
-1.10582e-06
4.46549e-07
-1.37888e-06
4.94082e-07
-1.68186e-06
5.50322e-07
-2.01609e-06
6.12193e-07
-2.3784e-06
6.72046e-07
-2.75941e-06
7.17564e-07
-3.14134e-06
7.27394e-07
-3.49628e-06
6.68854e-07
-3.77165e-06
4.96293e-07
-3.85675e-06
1.52404e-07
-3.64208e-06
-4.42922e-07
-3.01875e-06
-1.19827e-06
-2.03887e-06
-1.83991e-06
-8.89551e-07
-2.06408e-06
-1.48957e-06
-1.39578e-07
2.8073e-07
-3.08366e-07
4.23748e-07
-4.92992e-07
5.09228e-07
-6.96192e-07
5.72807e-07
-9.20424e-07
6.30966e-07
-1.16829e-06
6.94411e-07
-1.44334e-06
7.69132e-07
-1.74935e-06
8.56336e-07
-2.08874e-06
9.51582e-07
-2.46108e-06
1.04439e-06
-2.8618e-06
1.11828e-06
-3.28327e-06
1.14886e-06
-3.71258e-06
1.09817e-06
-4.10194e-06
8.85644e-07
-4.31732e-06
3.67792e-07
-4.17307e-06
-5.8718e-07
-3.58565e-06
-1.78569e-06
-2.60964e-06
-2.81593e-06
-1.30929e-06
-3.36443e-06
-2.79885e-06
-1.55002e-07
4.35733e-07
-3.28664e-07
5.97409e-07
-5.09814e-07
6.90378e-07
-7.03947e-07
7.6694e-07
-9.15909e-07
8.42927e-07
-1.1498e-06
9.28301e-07
-1.40978e-06
1.02911e-06
-1.7002e-06
1.14676e-06
-2.02534e-06
1.27672e-06
-2.38965e-06
1.4087e-06
-2.7978e-06
1.52643e-06
-3.25728e-06
1.60834e-06
-3.77014e-06
1.61103e-06
-4.27612e-06
1.39163e-06
-4.57518e-06
6.66854e-07
-4.46252e-06
-6.99834e-07
-3.94544e-06
-2.30277e-06
-3.03105e-06
-3.73032e-06
-1.68138e-06
-4.71409e-06
-4.48024e-06
-1.53531e-07
5.89264e-07
-3.22388e-07
7.66267e-07
-4.94408e-07
8.62398e-07
-6.7461e-07
9.47143e-07
-8.68367e-07
1.03668e-06
-1.08027e-06
1.1402e-06
-1.31467e-06
1.26351e-06
-1.57616e-06
1.40824e-06
-1.8705e-06
1.57106e-06
-2.20662e-06
1.74483e-06
-2.59802e-06
1.91783e-06
-3.06082e-06
2.07115e-06
-3.5867e-06
2.13691e-06
-4.07245e-06
1.87737e-06
-4.30457e-06
8.98974e-07
-4.1394e-06
-8.65001e-07
-3.66502e-06
-2.77715e-06
-2.88828e-06
-4.50707e-06
-1.66959e-06
-5.93278e-06
-6.14983e-06
-1.41916e-07
7.31179e-07
-2.98542e-07
9.22893e-07
-4.562e-07
1.02006e-06
-6.17993e-07
1.10894e-06
-7.88425e-07
1.20712e-06
-9.71478e-07
1.32326e-06
-1.17086e-06
1.46289e-06
-1.39054e-06
1.62793e-06
-1.63618e-06
1.8167e-06
-1.91736e-06
2.02601e-06
-2.24842e-06
2.24889e-06
-2.6388e-06
2.46152e-06
-3.0595e-06
2.55761e-06
-3.39316e-06
2.21104e-06
-3.47024e-06
9.76056e-07
-3.26524e-06
-1.07e-06
-2.89068e-06
-3.15171e-06
-2.33281e-06
-5.06494e-06
-1.40013e-06
-6.86545e-06
-7.54996e-06
-1.24547e-07
8.55727e-07
-2.63883e-07
1.06223e-06
-4.03005e-07
1.15918e-06
-5.42621e-07
1.24855e-06
-6.85522e-07
1.35002e-06
-8.34246e-07
1.47198e-06
-9.90887e-07
1.61953e-06
-1.15748e-06
1.79452e-06
-1.33693e-06
1.99615e-06
-1.53401e-06
2.22308e-06
-1.75686e-06
2.47175e-06
-2.00237e-06
2.70703e-06
-2.22442e-06
2.77966e-06
-2.35564e-06
2.34225e-06
-2.34093e-06
9.61349e-07
-2.19591e-06
-1.21502e-06
-1.99937e-06
-3.34826e-06
-1.71585e-06
-5.34846e-06
-1.09642e-06
-7.48489e-06
-8.64638e-06
-1.04345e-07
9.60072e-07
-2.23445e-07
1.18133e-06
-3.41322e-07
1.27705e-06
-4.56282e-07
1.36351e-06
-5.69052e-07
1.46279e-06
-6.80281e-07
1.58321e-06
-7.89959e-07
1.72921e-06
-8.97423e-07
1.90198e-06
-1.00162e-06
2.10035e-06
-1.10084e-06
2.3223e-06
-1.19021e-06
2.56112e-06
-1.25105e-06
2.76786e-06
-1.26988e-06
2.79849e-06
-1.24439e-06
2.31677e-06
-1.1914e-06
9.08354e-07
-1.13222e-06
-1.27419e-06
-1.08809e-06
-3.39239e-06
-1.03149e-06
-5.40506e-06
-7.94836e-07
-7.72154e-06
-9.44122e-06
-8.36299e-08
1.0437e-06
-1.81427e-07
1.27913e-06
-2.76981e-07
1.37261e-06
-3.66411e-07
1.45294e-06
-4.48425e-07
1.5448e-06
-5.21808e-07
1.65659e-06
-5.84548e-07
1.79195e-06
-6.33455e-07
1.95089e-06
-6.63536e-07
2.13043e-06
-6.66401e-07
2.32516e-06
-6.27765e-07
2.52249e-06
-5.34815e-07
2.67491e-06
-3.89126e-07
2.6528e-06
-2.44745e-07
2.17239e-06
-1.69323e-07
8.32932e-07
-2.0796e-07
-1.23556e-06
-3.26084e-07
-3.27426e-06
-4.59738e-07
-5.27141e-06
-4.89311e-07
-7.69196e-06
-9.93053e-06
-6.43549e-08
1.10806e-06
-1.41629e-07
1.3564e-06
-2.15419e-07
1.4464e-06
-2.8004e-07
1.51756e-06
-3.32582e-07
1.59734e-06
-3.70417e-07
1.69443e-06
-3.90189e-07
1.81172e-06
-3.87201e-07
1.9479e-06
-3.54488e-07
2.09772e-06
-2.8139e-07
2.25206e-06
-1.49953e-07
2.39105e-06
5.26467e-08
2.47231e-06
3.16533e-07
2.38892e-06
5.67922e-07
1.921e-06
6.47755e-07
7.53098e-07
5.10025e-07
-1.09783e-06
2.30908e-07
-2.99514e-06
-1.0509e-07
-4.93541e-06
-3.06717e-07
-7.49034e-06
-1.02372e-05
-4.83845e-08
1.15644e-06
-1.07781e-07
1.4158e-06
-1.61753e-07
1.50037e-06
-2.03528e-07
1.55934e-06
-2.29202e-07
1.62302e-06
-2.35424e-07
1.70065e-06
-2.18429e-07
1.79473e-06
-1.73342e-07
1.90282e-06
-9.31035e-08
2.01748e-06
3.26286e-08
2.12633e-06
2.14759e-07
2.20892e-06
4.6581e-07
2.22126e-06
7.73854e-07
2.08087e-06
1.05996e-06
1.6349e-06
1.1583e-06
6.54754e-07
9.7027e-07
-9.09796e-07
5.70057e-07
-2.59493e-06
1.27581e-07
-4.49294e-06
-1.79195e-07
-7.18356e-06
-1.04164e-05
-3.77078e-08
1.19415e-06
-8.34525e-08
1.46154e-06
-1.20747e-07
1.53766e-06
-1.42345e-07
1.58094e-06
-1.44296e-07
1.62497e-06
-1.23274e-07
1.67963e-06
-7.61309e-08
1.74758e-06
1.09385e-09
1.82559e-06
1.12786e-07
1.90579e-06
2.65356e-07
1.97376e-06
4.66807e-07
2.00747e-06
7.19242e-07
1.96883e-06
1.00601e-06
1.7941e-06
1.26307e-06
1.37784e-06
1.35613e-06
5.61696e-07
1.15362e-06
-7.07287e-07
7.11947e-07
-2.15326e-06
2.28545e-07
-4.00953e-06
-1.21314e-07
-6.8337e-06
-1.05378e-05
-3.54098e-08
1.22956e-06
-7.31207e-08
1.49925e-06
-9.74017e-08
1.56195e-06
-1.01319e-07
1.58485e-06
-8.2375e-08
1.60602e-06
-3.78344e-08
1.63509e-06
3.40815e-08
1.67567e-06
1.34723e-07
1.72495e-06
2.66785e-07
1.77372e-06
4.3255e-07
1.80799e-06
6.33124e-07
1.8069e-06
8.63674e-07
1.73828e-06
1.10466e-06
1.55311e-06
1.30542e-06
1.17709e-06
1.3635e-06
5.0361e-07
1.16494e-06
-5.08726e-07
7.36721e-07
-1.72504e-06
2.54607e-07
-3.52742e-06
-1.06977e-07
-6.47212e-06
-1.06447e-05
-4.36686e-08
1.27323e-06
-8.11006e-08
1.53668e-06
-9.67448e-08
1.57759e-06
-8.57519e-08
1.57386e-06
-4.65344e-08
1.56681e-06
1.9686e-08
1.56887e-06
1.12488e-07
1.58287e-06
2.32194e-07
1.60524e-06
3.78231e-07
1.62769e-06
5.49252e-07
1.63697e-06
7.41582e-07
1.61457e-06
9.45714e-07
1.53415e-06
1.14049e-06
1.35833e-06
1.28373e-06
1.03385e-06
1.29881e-06
4.8853e-07
1.11125e-06
-3.21168e-07
7.26495e-07
-1.34028e-06
2.71033e-07
-3.07196e-06
-4.04514e-08
-6.16063e-06
-1.06852e-05
-7.28614e-08
1.34609e-06
-1.12769e-07
1.57659e-06
-1.19678e-07
1.5845e-06
-9.36942e-08
1.54788e-06
-3.55309e-08
1.50864e-06
5.1227e-08
1.48211e-06
1.63856e-07
1.47024e-06
3.00275e-07
1.46882e-06
4.57999e-07
1.46996e-06
6.33131e-07
1.46184e-06
8.18622e-07
1.42907e-06
1.00214e-06
1.35063e-06
1.16173e-06
1.19874e-06
1.26153e-06
9.34048e-07
1.24366e-06
5.064e-07
1.06256e-06
-1.40064e-07
7.26941e-07
-1.00466e-06
3.11517e-07
-2.65653e-06
3.10951e-08
-5.88021e-06
-1.06541e-05
-1.20519e-07
1.46661e-06
-1.72441e-07
1.62851e-06
-1.72373e-07
1.58443e-06
-1.25153e-07
1.50066e-06
-4.41644e-08
1.42765e-06
6.4665e-08
1.37328e-06
1.97046e-07
1.33786e-06
3.50413e-07
1.31546e-06
5.21052e-07
1.29932e-06
7.03762e-07
1.27913e-06
8.89312e-07
1.24352e-06
1.06432e-06
1.17562e-06
1.20618e-06
1.05688e-06
1.28499e-06
8.55235e-07
1.2495e-06
5.41886e-07
1.07454e-06
3.49047e-08
7.83765e-07
-7.13891e-07
4.06297e-07
-2.27907e-06
1.19974e-07
-5.59389e-06
-1.05341e-05
-2.6483e-07
1.73144e-06
-2.97316e-07
1.661e-06
-2.52062e-07
1.53918e-06
-1.60421e-07
1.40902e-06
-4.88952e-08
1.31613e-06
8.25255e-08
1.24186e-06
2.35419e-07
1.18496e-06
4.08749e-07
1.14213e-06
5.97742e-07
1.11033e-06
7.97485e-07
1.07939e-06
9.96962e-07
1.04405e-06
1.18416e-06
9.88427e-07
1.33311e-06
9.07933e-07
1.41522e-06
7.73117e-07
1.38312e-06
5.73988e-07
1.22218e-06
1.95848e-07
9.70433e-07
-4.62148e-07
6.03275e-07
-1.91191e-06
2.37841e-07
-5.22845e-06
-1.02963e-05
-4.16855e-07
2.14829e-06
-3.52457e-07
1.5966e-06
-2.34827e-07
1.42155e-06
-9.43338e-08
1.26852e-06
6.54839e-08
1.15631e-06
2.45846e-07
1.0615e-06
4.45375e-07
9.85434e-07
6.62545e-07
9.24956e-07
8.91343e-07
8.81533e-07
1.13011e-06
8.40627e-07
1.36481e-06
8.09341e-07
1.58878e-06
7.64463e-07
1.77342e-06
7.23289e-07
1.90042e-06
6.4612e-07
1.92377e-06
5.50639e-07
1.85339e-06
2.66222e-07
1.66147e-06
-2.70228e-07
1.3219e-06
-1.57233e-06
6.42266e-07
-4.54882e-06
-9.65401e-06
-4.15705e-07
2.564e-06
-2.33124e-07
1.41402e-06
1.87282e-07
1.00114e-06
6.03423e-07
8.52381e-07
1.00636e-06
7.53372e-07
1.39822e-06
6.69642e-07
1.77668e-06
6.06974e-07
2.14655e-06
5.55082e-07
2.5059e-06
5.22181e-07
2.86256e-06
4.83969e-07
3.20405e-06
4.67853e-07
3.5395e-06
4.29007e-07
3.84446e-06
4.18331e-07
4.14207e-06
3.48512e-07
4.38523e-06
3.07477e-07
4.53467e-06
1.16779e-07
4.46935e-06
-2.04903e-07
4.0099e-06
-1.11288e-06
2.34062e-06
-2.87954e-06
-7.31339e-06
2.564e-06
3.97802e-06
4.97916e-06
5.83154e-06
6.58491e-06
7.25455e-06
7.86153e-06
8.41661e-06
8.93879e-06
9.42276e-06
9.89061e-06
1.03196e-05
1.07379e-05
1.10865e-05
1.13939e-05
1.15107e-05
1.13058e-05
1.01929e-05
7.31339e-06
)
;

boundaryField
{
    movingWall
    {
        type            calculated;
        value           uniform 0;
    }
    fixedWalls
    {
        type            calculated;
        value           uniform 0;
    }
    frontAndBack
    {
        type            empty;
        value           nonuniform 0();
    }
}


// ************************************************************************* //
