/*--------------------------------*- C++ -*----------------------------------*\
| =========                 |                                                 |
| \\      /  F ield         | OpenFOAM: The Open Source CFD Toolbox           |
|  \\    /   O peration     | Version:  4.1                                   |
|   \\  /    A nd           | Web:      www.OpenFOAM.org                      |
|    \\/     M anipulation  |                                                 |
\*---------------------------------------------------------------------------*/
FoamFile
{
    version     2.0;
    format      ascii;
    class       volVectorField;
    location    "1.5";
    object      U;
}
// * * * * * * * * * * * * * * * * * * * * * * * * * * * * * * * * * * * * * //

dimensions      [0 1 -1 0 0 0 0];

internalField   nonuniform List<vector> 
400
(
(-0.0001892 0.00019611 0)
(-0.00157159 0.000866403 0)
(-0.00421495 0.00134325 0)
(-0.00737079 0.00157703 0)
(-0.0108755 0.0017177 0)
(-0.0146921 0.00186095 0)
(-0.0188851 0.00204908 0)
(-0.0235579 0.00230294 0)
(-0.02882 0.00262871 0)
(-0.0347451 0.00300935 0)
(-0.0413021 0.00338422 0)
(-0.0482805 0.00357877 0)
(-0.0554005 0.00331668 0)
(-0.061137 0.00246347 0)
(-0.0635408 0.00133939 0)
(-0.062377 -0.00218402 0)
(-0.0533082 -0.00528731 0)
(-0.038684 -0.00776701 0)
(-0.0205179 -0.00789324 0)
(-0.00523039 -0.0050045 0)
(-0.000855391 0.00158328 0)
(-0.00333178 0.00348848 0)
(-0.00670348 0.00467918 0)
(-0.0105688 0.00538168 0)
(-0.0148455 0.00591485 0)
(-0.0195405 0.00648053 0)
(-0.024722 0.00716653 0)
(-0.0304752 0.00799264 0)
(-0.0368644 0.00891655 0)
(-0.0438886 0.00982532 0)
(-0.0514213 0.0105274 0)
(-0.0592639 0.0106603 0)
(-0.0670474 0.00965015 0)
(-0.0738022 0.00685154 0)
(-0.0775758 0.00169789 0)
(-0.0761084 -0.00646935 0)
(-0.0670685 -0.0167879 0)
(-0.0506201 -0.0255525 0)
(-0.0293193 -0.0279137 0)
(-0.00785265 -0.018412 0)
(-0.00141008 0.00415999 0)
(-0.00441597 0.00676284 0)
(-0.00789955 0.0083491 0)
(-0.0117794 0.0094643 0)
(-0.0160552 0.0104364 0)
(-0.0207621 0.0114817 0)
(-0.0259707 0.0127142 0)
(-0.0317656 0.014154 0)
(-0.0382164 0.0157199 0)
(-0.0453593 0.0172173 0)
(-0.0531459 0.0183406 0)
(-0.061509 0.0186169 0)
(-0.070407 0.0173568 0)
(-0.0792547 0.0134568 0)
(-0.0858168 0.00499144 0)
(-0.0866152 -0.00997173 0)
(-0.0780617 -0.028973 0)
(-0.0621822 -0.0453156 0)
(-0.0395725 -0.0518477 0)
(-0.0136298 -0.0383963 0)
(-0.00163379 0.00714698 0)
(-0.00484878 0.010201 0)
(-0.00830278 0.0120012 0)
(-0.0120359 0.0134215 0)
(-0.0160902 0.0147782 0)
(-0.020529 0.0162752 0)
(-0.0254435 0.0180352 0)
(-0.030923 0.0200844 0)
(-0.037052 0.022327 0)
(-0.0439289 0.024537 0)
(-0.0516174 0.026363 0)
(-0.0602949 0.0273255 0)
(-0.0704019 0.0266696 0)
(-0.0817826 0.0222844 0)
(-0.0911211 0.00995445 0)
(-0.0924031 -0.013163 0)
(-0.0846708 -0.0415263 0)
(-0.0698469 -0.0654215 0)
(-0.0465692 -0.0794448 0)
(-0.0203676 -0.0698248 0)
(-0.00162867 0.010251 0)
(-0.00480758 0.0136562 0)
(-0.00811541 0.0155602 0)
(-0.011605 0.0171881 0)
(-0.0153343 0.0188582 0)
(-0.0193685 0.0207615 0)
(-0.0238048 0.0230153 0)
(-0.0287323 0.0256472 0)
(-0.0342456 0.0285694 0)
(-0.0404891 0.0315922 0)
(-0.0476125 0.0344189 0)
(-0.0560098 0.0366401 0)
(-0.066495 0.0371711 0)
(-0.0786859 0.0322605 0)
(-0.0872951 0.0152118 0)
(-0.0868786 -0.0168003 0)
(-0.0780589 -0.0534891 0)
(-0.0651252 -0.085855 0)
(-0.0440605 -0.109394 0)
(-0.0215197 -0.109604 0)
(-0.00149656 0.0132208 0)
(-0.00446367 0.0169338 0)
(-0.0075183 0.0188809 0)
(-0.0106773 0.0206341 0)
(-0.0139893 0.0225317 0)
(-0.0175034 0.024751 0)
(-0.0213017 0.0274048 0)
(-0.0254589 0.0305272 0)
(-0.0300595 0.0340642 0)
(-0.0352429 0.0379076 0)
(-0.0411549 0.0418613 0)
(-0.0481694 0.0454772 0)
(-0.0570894 0.0469225 0)
(-0.0671508 0.0404703 0)
(-0.073117 0.0178946 0)
(-0.068757 -0.0208171 0)
(-0.0610065 -0.0625755 0)
(-0.0516397 -0.100281 0)
(-0.0358588 -0.132385 0)
(-0.0177643 -0.141244 0)
(-0.00129706 0.0158982 0)
(-0.00394152 0.0199099 0)
(-0.00665867 0.0218663 0)
(-0.00941438 0.0236668 0)
(-0.0122331 0.025687 0)
(-0.0151344 0.0280978 0)
(-0.0181686 0.0310058 0)
(-0.0213744 0.0344495 0)
(-0.0247915 0.0384057 0)
(-0.0284838 0.0428304 0)
(-0.0325028 0.0475932 0)
(-0.0369959 0.0521352 0)
(-0.0425729 0.0538033 0)
(-0.048477 0.0454054 0)
(-0.0507325 0.0188266 0)
(-0.0456226 -0.0239363 0)
(-0.0408834 -0.067041 0)
(-0.0359349 -0.107151 0)
(-0.0290732 -0.148164 0)
(-0.0107027 -0.165964 0)
(-0.00106694 0.0181971 0)
(-0.00332804 0.0225061 0)
(-0.00565363 0.0244486 0)
(-0.00795808 0.026225 0)
(-0.0102352 0.0282577 0)
(-0.0124689 0.0307146 0)
(-0.0146688 0.0336922 0)
(-0.0168284 0.0372232 0)
(-0.0189228 0.0412935 0)
(-0.020908 0.0458814 0)
(-0.0227329 0.0509188 0)
(-0.0243023 0.0554948 0)
(-0.025329 0.0564261 0)
(-0.0271661 0.0469788 0)
(-0.0267907 0.0186551 0)
(-0.022574 -0.0251996 0)
(-0.0213479 -0.0681948 0)
(-0.0192551 -0.109028 0)
(-0.0206516 -0.15432 0)
(-0.00712857 -0.183978 0)
(-0.000834075 0.0200807 0)
(-0.00269298 0.024683 0)
(-0.00460437 0.0265895 0)
(-0.00643988 0.028275 0)
(-0.00816127 0.0302109 0)
(-0.00971808 0.0325654 0)
(-0.0110813 0.0354201 0)
(-0.0122019 0.0387899 0)
(-0.0129973 0.0426396 0)
(-0.0133364 0.0469055 0)
(-0.0129851 0.0514119 0)
(-0.0117016 0.0551489 0)
(-0.00951924 0.0554394 0)
(-0.00707129 0.0459314 0)
(-0.00488005 0.0180506 0)
(-0.00235647 -0.024743 0)
(-0.00519807 -0.0665554 0)
(-0.00586696 -0.106669 0)
(-0.0136788 -0.153995 0)
(-0.00262016 -0.194475 0)
(-0.000623933 0.0215669 0)
(-0.00209466 0.0264328 0)
(-0.00360428 0.0282827 0)
(-0.00498343 0.0298146 0)
(-0.00616816 0.0315536 0)
(-0.00708208 0.033671 0)
(-0.00766876 0.0362324 0)
(-0.00785268 0.0392256 0)
(-0.0075204 0.0425708 0)
(-0.00650138 0.0461274 0)
(-0.0045174 0.0495713 0)
(-0.00126865 0.0520638 0)
(0.00336923 0.0512651 0)
(0.00861201 0.0421316 0)
(0.0120516 0.0169612 0)
(0.0134514 -0.0227505 0)
(0.0069792 -0.0621451 0)
(0.00397572 -0.101426 0)
(-0.00938358 -0.15147 0)
(-0.000228174 -0.201804 0)
(-0.000454182 0.0226909 0)
(-0.00159392 0.0277921 0)
(-0.00274246 0.0295537 0)
(-0.00370296 0.030872 0)
(-0.00439461 0.0323268 0)
(-0.00472768 0.0340969 0)
(-0.00463468 0.0362356 0)
(-0.00403466 0.0387047 0)
(-0.0028148 0.0413774 0)
(-0.000826069 0.0440381 0)
(0.00218051 0.0462827 0)
(0.00644349 0.0472711 0)
(0.0119996 0.0451497 0)
(0.0182418 0.0362842 0)
(0.0223195 0.0150549 0)
(0.0232225 -0.0192703 0)
(0.01485 -0.0551034 0)
(0.0107272 -0.0935137 0)
(-0.00718419 -0.145672 0)
(0.00218993 -0.205569 0)
(-0.000347882 0.0235582 0)
(-0.00124905 0.0288337 0)
(-0.00210433 0.0304556 0)
(-0.00270154 0.031496 0)
(-0.00295515 0.0325914 0)
(-0.00277854 0.033932 0)
(-0.0021108 0.035567 0)
(-0.00088936 0.0374384 0)
(0.000970948 0.0393903 0)
(0.00358025 0.0411518 0)
(0.00707815 0.0422929 0)
(0.0115766 0.0419941 0)
(0.0169493 0.0388362 0)
(0.0227533 0.0302831 0)
(0.0266299 0.0123606 0)
(0.0269826 -0.0158043 0)
(0.0178286 -0.0467883 0)
(0.0139512 -0.0841342 0)
(-0.00729475 -0.138805 0)
(0.00439428 -0.208155 0)
(-0.000348579 0.0242469 0)
(-0.00114171 0.0296382 0)
(-0.00178606 0.0310558 0)
(-0.00207942 0.0317505 0)
(-0.00194324 0.0324136 0)
(-0.00131906 0.0332631 0)
(-0.000166622 0.0343545 0)
(0.00154848 0.0356245 0)
(0.00386407 0.0368998 0)
(0.00682282 0.0378903 0)
(0.0104688 0.0381633 0)
(0.0147852 0.0370095 0)
(0.0195423 0.0333136 0)
(0.0243011 0.0253171 0)
(0.0272287 0.0104495 0)
(0.0271521 -0.0120971 0)
(0.0176537 -0.0384622 0)
(0.0156234 -0.0749072 0)
(-0.00864741 -0.132528 0)
(0.00656468 -0.210406 0)
(-0.000463274 0.0250982 0)
(-0.0013439 0.0303964 0)
(-0.00188428 0.0314514 0)
(-0.001958 0.0316437 0)
(-0.00143801 0.0318215 0)
(-0.000395222 0.0321437 0)
(0.00119373 0.0326892 0)
(0.00332095 0.0333954 0)
(0.00597675 0.0340856 0)
(0.00914442 0.0344828 0)
(0.012785 0.0341864 0)
(0.016786 0.0326093 0)
(0.0208539 0.0288923 0)
(0.0245234 0.0217927 0)
(0.0263716 0.00961654 0)
(0.0259189 -0.00838881 0)
(0.0162808 -0.0305234 0)
(0.0171551 -0.0656183 0)
(-0.0102528 -0.125472 0)
(0.0102764 -0.21255 0)
(-0.000929553 0.0260041 0)
(-0.00202167 0.0310502 0)
(-0.00246396 0.0316277 0)
(-0.00226995 0.0312872 0)
(-0.0014314 0.0308318 0)
(2.8836e-05 0.0305903 0)
(0.00203163 0.0306046 0)
(0.00452995 0.0307997 0)
(0.00747933 0.031012 0)
(0.0108194 0.0309896 0)
(0.0144503 0.0303885 0)
(0.0181943 0.0287338 0)
(0.021715 0.0253789 0)
(0.0245461 0.0194248 0)
(0.0255275 0.00971644 0)
(0.0248813 -0.00467851 0)
(0.0149536 -0.0233028 0)
(0.019092 -0.0572614 0)
(-0.0114114 -0.120623 0)
(0.0147448 -0.216302 0)
(-0.00134869 0.0281256 0)
(-0.00329161 0.0320916 0)
(-0.00364929 0.0317343 0)
(-0.0031196 0.0306044 0)
(-0.00183452 0.029496 0)
(8.0952e-05 0.0286733 0)
(0.00250632 0.0281782 0)
(0.00537614 0.0279192 0)
(0.00863032 0.0277457 0)
(0.0121842 0.0274356 0)
(0.0158992 0.0267174 0)
(0.0195656 0.0252172 0)
(0.0228151 0.0224658 0)
(0.0252201 0.017772 0)
(0.0257167 0.0103468 0)
(0.0252392 -0.000975928 0)
(0.0145654 -0.0172688 0)
(0.0225533 -0.0496564 0)
(-0.012411 -0.117355 0)
(0.020771 -0.2209 0)
(-0.00380453 0.029301 0)
(-0.00633696 0.0317111 0)
(-0.00564769 0.0307643 0)
(-0.00423691 0.0289132 0)
(-0.00215867 0.0273158 0)
(0.000219699 0.0261182 0)
(0.00306717 0.0252879 0)
(0.00634767 0.0247098 0)
(0.00998487 0.024276 0)
(0.0138978 0.0237922 0)
(0.0179105 0.0230744 0)
(0.0218412 0.0218159 0)
(0.025251 0.0197578 0)
(0.0278525 0.0163398 0)
(0.0281521 0.0111479 0)
(0.0281334 0.00215912 0)
(0.0170784 -0.0122506 0)
(0.0285146 -0.043292 0)
(-0.0130146 -0.114855 0)
(0.0288141 -0.221333 0)
(-0.00641229 0.0467798 0)
(-0.0089083 0.0403293 0)
(-0.0058522 0.0349422 0)
(-0.00336775 0.0302653 0)
(-0.000408371 0.0273439 0)
(0.00302553 0.0251334 0)
(0.0068265 0.0233879 0)
(0.0110154 0.0220364 0)
(0.0154572 0.0210386 0)
(0.0201922 0.0201543 0)
(0.0248668 0.0193621 0)
(0.0295942 0.018296 0)
(0.0335048 0.0170257 0)
(0.0370953 0.0149087 0)
(0.0378834 0.0119938 0)
(0.0392894 0.00552202 0)
(0.0306724 -0.00734113 0)
(0.0425386 -0.0378277 0)
(-0.00433332 -0.105031 0)
(0.0444363 -0.201439 0)
(-0.00345706 0.0228764 0)
(-0.0106319 0.0100449 0)
(0.000506823 0.0118508 0)
(0.00759931 0.0134497 0)
(0.0158744 0.0137113 0)
(0.024 0.0132465 0)
(0.0316684 0.0127531 0)
(0.039342 0.0123052 0)
(0.0463849 0.0120343 0)
(0.0539081 0.011672 0)
(0.0603141 0.0114733 0)
(0.0678143 0.0109919 0)
(0.0730902 0.0106448 0)
(0.0802766 0.00955375 0)
(0.0835068 0.00813671 0)
(0.0892959 0.00335651 0)
(0.0867819 -0.00539809 0)
(0.09138 -0.0291353 0)
(0.0450733 -0.0752587 0)
(0.0825219 -0.151286 0)
(0.0519787 0.0997604 0)
(0.0597272 0.0619457 0)
(0.0894283 0.0387981 0)
(0.109937 0.0279885 0)
(0.125413 0.0218675 0)
(0.1392 0.017778 0)
(0.151315 0.0149301 0)
(0.163291 0.012664 0)
(0.173426 0.0111511 0)
(0.184176 0.00958883 0)
(0.19268 0.00889016 0)
(0.202542 0.00755605 0)
(0.209573 0.00746986 0)
(0.2182 0.00586224 0)
(0.223267 0.00623361 0)
(0.229033 0.00303111 0)
(0.227639 0.000230242 0)
(0.219035 -0.00622417 0)
(0.175237 -0.0196675 0)
(0.166601 -0.116559 0)
)
;

boundaryField
{
    movingWall
    {
        type            fixedValue;
        value           uniform (1 0 0);
    }
    fixedWalls
    {
        type            noSlip;
    }
    frontAndBack
    {
        type            empty;
    }
}


// ************************************************************************* //
