/*--------------------------------*- C++ -*----------------------------------*\
| =========                 |                                                 |
| \\      /  F ield         | OpenFOAM: The Open Source CFD Toolbox           |
|  \\    /   O peration     | Version:  4.1                                   |
|   \\  /    A nd           | Web:      www.OpenFOAM.org                      |
|    \\/     M anipulation  |                                                 |
\*---------------------------------------------------------------------------*/
FoamFile
{
    version     2.0;
    format      ascii;
    class       volScalarField;
    location    "7.5";
    object      epsilon;
}
// * * * * * * * * * * * * * * * * * * * * * * * * * * * * * * * * * * * * * //

dimensions      [0 2 -3 0 0 0 0];

internalField   nonuniform List<scalar> 
400
(
0.000327491
0.00105904
0.00329192
0.00664889
0.00967983
0.0117526
0.0129513
0.0134941
0.0136542
0.0134612
0.0128383
0.0120788
0.0110891
0.0101718
0.00924586
0.00843654
0.0077524
0.00708968
0.00557559
0.00431591
0.000760677
0.00189856
0.00396327
0.00536922
0.00576036
0.00533956
0.00458071
0.00383607
0.00319595
0.00273847
0.00251233
0.00244551
0.00264537
0.002976
0.00352224
0.00438427
0.00572972
0.00751721
0.00953347
0.0103854
0.00180517
0.00274027
0.00345059
0.00348421
0.00269076
0.00205092
0.00151805
0.00122556
0.00106634
0.000998986
0.000983078
0.00103536
0.00117804
0.00140562
0.00185456
0.00263387
0.00404804
0.00654767
0.0110037
0.016455
0.00268501
0.0026464
0.00271257
0.00208936
0.00131396
0.000936449
0.000676787
0.000555247
0.000479178
0.000443605
0.00043083
0.000434547
0.000497654
0.000605335
0.000846836
0.00135011
0.00247639
0.00503228
0.011068
0.0206896
0.00332621
0.00240842
0.00205915
0.00123633
0.00072936
0.000496605
0.000351262
0.000280738
0.000230988
0.000207716
0.000198321
0.00019802
0.000229758
0.000291714
0.000431939
0.000762206
0.00162936
0.00386649
0.0102945
0.0240067
0.00395788
0.00211544
0.0015294
0.000786901
0.000450751
0.000295008
0.000202023
0.000155967
0.000123548
0.000108662
0.000102963
0.000102911
0.000121806
0.000160396
0.000246404
0.000462013
0.00110855
0.00311932
0.00971595
0.0266016
0.00463355
0.00183641
0.00116238
0.000556318
0.00031021
0.000197012
0.000131839
9.9272e-05
7.70152e-05
6.68436e-05
6.29687e-05
6.28998e-05
7.48632e-05
0.00010087
0.000157689
0.000295315
0.000758618
0.00246878
0.00911148
0.0288058
0.00541987
0.00163916
0.000916575
0.000430436
0.000238943
0.000149474
9.82994e-05
7.27234e-05
5.58382e-05
4.80514e-05
4.51264e-05
4.51202e-05
5.35584e-05
7.26301e-05
0.000114829
0.000212414
0.000562731
0.002055
0.0086894
0.030699
0.00616573
0.00148285
0.000768619
0.000366152
0.000203403
0.000126028
8.23446e-05
6.05746e-05
4.63582e-05
3.97189e-05
3.73028e-05
3.75605e-05
4.39907e-05
5.89658e-05
9.18763e-05
0.000164951
0.000413421
0.00167987
0.00838076
0.0324823
0.0070546
0.00144146
0.000673006
0.000327779
0.000189724
0.000119534
7.77365e-05
5.64616e-05
4.36789e-05
3.70705e-05
3.45106e-05
3.51666e-05
4.02567e-05
5.29851e-05
8.06178e-05
0.000143279
0.000339941
0.00147314
0.00820202
0.0342117
0.00769394
0.00152501
0.000633624
0.000320694
0.000191657
0.000121891
7.96535e-05
5.77183e-05
4.49358e-05
3.80974e-05
3.48826e-05
3.52531e-05
3.94028e-05
5.11115e-05
7.58252e-05
0.000133599
0.000299578
0.00132663
0.00811808
0.0360526
0.00829294
0.00176889
0.000650341
0.000327752
0.000199458
0.000129075
8.55518e-05
6.19814e-05
4.86684e-05
4.14243e-05
3.79259e-05
3.85244e-05
4.20996e-05
5.23171e-05
7.50371e-05
0.000130736
0.000287868
0.00127351
0.0080824
0.0381038
0.00835964
0.00217123
0.000715427
0.000349894
0.000216439
0.000143817
9.7604e-05
7.09409e-05
5.61968e-05
4.82621e-05
4.4389e-05
4.52624e-05
4.91684e-05
5.98253e-05
8.24204e-05
0.000136266
0.000286532
0.00127029
0.00823623
0.0405822
0.00817432
0.00267859
0.000874942
0.000401784
0.000243653
0.000166583
0.000118116
8.79597e-05
7.02754e-05
6.10814e-05
5.67284e-05
5.79731e-05
6.24342e-05
7.39831e-05
9.7581e-05
0.000156256
0.000320543
0.00140494
0.0093223
0.0436959
0.00755984
0.00312289
0.0011123
0.000503045
0.000292967
0.000197133
0.000142928
0.000111187
9.19942e-05
8.29563e-05
7.8738e-05
8.0435e-05
8.55411e-05
9.85168e-05
0.00012532
0.000195659
0.000393124
0.00168811
0.0108413
0.0481141
0.00652236
0.0033412
0.00151407
0.000734182
0.000407278
0.000261332
0.000186782
0.00014562
0.000121371
0.000110432
0.00010755
0.000110479
0.000117891
0.00013607
0.000175542
0.000281299
0.000570767
0.00233231
0.0135903
0.0543197
0.00459128
0.00312074
0.0017146
0.00096777
0.000593033
0.000395842
0.000284777
0.000222295
0.000185608
0.00016727
0.000164797
0.000169725
0.000185281
0.00022864
0.000319247
0.000542494
0.00110334
0.00398855
0.0186913
0.0636672
0.0034502
0.00265772
0.00204012
0.00146421
0.00107718
0.000830459
0.000672086
0.00058829
0.000543993
0.000548628
0.000569048
0.000628273
0.000700085
0.000883142
0.00117554
0.00190728
0.00352389
0.00953265
0.0305649
0.0791647
0.00422479
0.00586753
0.00726589
0.00748594
0.00737488
0.00729886
0.00731642
0.00748506
0.00775383
0.00827119
0.00868438
0.00951841
0.0101905
0.0114785
0.0125492
0.0163353
0.0224571
0.0373926
0.0702808
0.110693
0.0451972
0.089393
0.122057
0.134398
0.137131
0.13711
0.136772
0.136951
0.137307
0.138347
0.139263
0.141227
0.143225
0.14591
0.149842
0.153237
0.157043
0.161841
0.177816
0.153046
)
;

boundaryField
{
    movingWall
    {
        Cmu             0.09;
        kappa           0.41;
        E               9.8;
        type            epsilonWallFunction;
        value           nonuniform List<scalar> 
20
(
0.0451972
0.089393
0.122057
0.134398
0.137131
0.13711
0.136772
0.136951
0.137307
0.138347
0.139263
0.141227
0.143225
0.14591
0.149842
0.153237
0.157043
0.161841
0.177816
0.153046
)
;
    }
    fixedWalls
    {
        Cmu             0.09;
        kappa           0.41;
        E               9.8;
        type            epsilonWallFunction;
        value           nonuniform List<scalar> 
60
(
0.000327491
0.000760677
0.00180517
0.00268501
0.00332621
0.00395788
0.00463355
0.00541987
0.00616573
0.0070546
0.00769394
0.00829294
0.00835964
0.00817432
0.00755984
0.00652236
0.00459128
0.0034502
0.00422479
0.0451972
0.00431591
0.0103854
0.016455
0.0206896
0.0240067
0.0266016
0.0288058
0.030699
0.0324823
0.0342117
0.0360526
0.0381038
0.0405822
0.0436959
0.0481141
0.0543197
0.0636672
0.0791647
0.110693
0.153046
0.000327491
0.00105904
0.00329192
0.00664889
0.00967983
0.0117526
0.0129513
0.0134941
0.0136542
0.0134612
0.0128383
0.0120788
0.0110891
0.0101718
0.00924586
0.00843654
0.0077524
0.00708968
0.00557559
0.00431591
)
;
    }
    frontAndBack
    {
        type            empty;
    }
}


// ************************************************************************* //
