/*--------------------------------*- C++ -*----------------------------------*\
| =========                 |                                                 |
| \\      /  F ield         | OpenFOAM: The Open Source CFD Toolbox           |
|  \\    /   O peration     | Version:  4.1                                   |
|   \\  /    A nd           | Web:      www.OpenFOAM.org                      |
|    \\/     M anipulation  |                                                 |
\*---------------------------------------------------------------------------*/
FoamFile
{
    version     2.0;
    format      ascii;
    class       volScalarField;
    location    "7.5";
    object      k;
}
// * * * * * * * * * * * * * * * * * * * * * * * * * * * * * * * * * * * * * //

dimensions      [0 2 -2 0 0 0 0];

internalField   nonuniform List<scalar> 
400
(
0.000161072
0.000352254
0.000750149
0.00119846
0.00153931
0.00175177
0.00186889
0.00192073
0.00193588
0.00191757
0.00185797
0.00178394
0.00168513
0.00159088
0.0014928
0.00140437
0.00132738
0.00125061
0.00106552
0.000898293
0.000282516
0.000611903
0.000967139
0.00113691
0.00118878
0.00108049
0.000982331
0.000881607
0.000817189
0.000781037
0.000767308
0.000777301
0.00083793
0.000910274
0.0010305
0.0011784
0.00136508
0.00155808
0.00167826
0.00161307
0.000502656
0.000833459
0.000927848
0.000927569
0.00071263
0.000609647
0.000513175
0.000465356
0.00043511
0.000421219
0.000416666
0.000420939
0.00045158
0.000497474
0.000592389
0.000746279
0.00099521
0.00136243
0.00185543
0.00219232
0.000654889
0.000831562
0.000831817
0.000646939
0.000466082
0.000385165
0.000320733
0.000290014
0.000263742
0.00025128
0.000245697
0.000244635
0.000257454
0.000281915
0.000336771
0.000447757
0.000674103
0.00108839
0.00183131
0.00255394
0.000755272
0.000814054
0.000698072
0.000455289
0.000329173
0.00026762
0.000222024
0.000200478
0.000186765
0.000181184
0.000179348
0.000181998
0.000191291
0.000207263
0.000239733
0.000311223
0.000491625
0.000885193
0.00171279
0.00282012
0.000848064
0.00077257
0.000570454
0.000346992
0.000249548
0.000201266
0.000170905
0.000157816
0.000151981
0.000150039
0.000150031
0.000156283
0.000166139
0.000181028
0.000205331
0.000249788
0.0003818
0.000749607
0.00164178
0.00301987
0.000942009
0.000713666
0.000477298
0.000282646
0.000203289
0.00016531
0.000145563
0.000137346
0.000133873
0.00013261
0.00013285
0.000139022
0.000150768
0.000168089
0.00019136
0.00022267
0.000313567
0.000632519
0.00156499
0.00318448
0.00104578
0.00064822
0.000412057
0.000245469
0.000179838
0.00014838
0.000133053
0.000125978
0.000122243
0.000120377
0.00012008
0.000124465
0.000136196
0.000155258
0.000182415
0.000210014
0.000276119
0.000556492
0.00152334
0.00332252
0.00113964
0.00060552
0.000373225
0.000225611
0.000166802
0.000139922
0.000126235
0.0001198
0.000115763
0.000113518
0.000113093
0.000116634
0.000126532
0.000144381
0.000172527
0.000202037
0.000246585
0.000484219
0.00149176
0.00344998
0.00124671
0.000569415
0.000347094
0.000214827
0.000165409
0.000140073
0.000125821
0.00011843
0.000114034
0.000111278
0.000110654
0.000113679
0.00012193
0.000138181
0.000163648
0.000196817
0.000229918
0.000441892
0.00147732
0.00357137
0.00132095
0.000573372
0.000337973
0.000215613
0.0001671
0.000141784
0.000126853
0.000118981
0.000114492
0.000111703
0.000111055
0.000113217
0.000120231
0.000135261
0.000157918
0.000192074
0.000216066
0.000404
0.00147148
0.00369835
0.00138867
0.000594174
0.000341888
0.000219993
0.000171993
0.000146209
0.000129811
0.000120742
0.000115965
0.000113413
0.000113277
0.000115144
0.000120713
0.000134346
0.000155752
0.000189376
0.000210258
0.000386975
0.0014698
0.00383729
0.00139615
0.000636729
0.000355663
0.000229864
0.000179285
0.000152106
0.000134419
0.00012415
0.000118903
0.000116704
0.000117155
0.000119327
0.000124603
0.000137612
0.00015587
0.000188132
0.000206449
0.00038068
0.00148773
0.00400189
0.00137546
0.000707275
0.000389368
0.000251402
0.000192733
0.000162406
0.000142539
0.000130307
0.000123996
0.000122316
0.000123232
0.000126402
0.000132295
0.000146039
0.000162594
0.000188972
0.000205206
0.00038066
0.00158937
0.004204
0.00130568
0.000770932
0.000433515
0.000280516
0.000210957
0.000174791
0.000152688
0.000139527
0.000132082
0.000132173
0.000133746
0.000138719
0.000144978
0.000159028
0.000172923
0.000191912
0.000209022
0.000415979
0.00174671
0.00448277
0.00118333
0.000826768
0.000517111
0.000339625
0.000248631
0.000199545
0.000170611
0.000154259
0.000143888
0.000144215
0.000146353
0.000152807
0.000158652
0.000171006
0.000181788
0.000194468
0.000222123
0.000486969
0.00201655
0.00486034
0.000936406
0.00080302
0.00057248
0.000415943
0.000312572
0.000249201
0.000208749
0.000184699
0.000168538
0.000161537
0.000161573
0.000163676
0.000168332
0.00017911
0.000189311
0.000212461
0.00027757
0.000678268
0.00248044
0.00540303
0.000773903
0.000746017
0.000647689
0.000524176
0.00042819
0.000356537
0.000301526
0.000265575
0.000240481
0.000225876
0.000218606
0.000220004
0.000224815
0.00024075
0.000274279
0.000361441
0.000559072
0.00124517
0.00340953
0.0062476
0.00088572
0.0010022
0.00109779
0.00107453
0.00102005
0.00098015
0.000949045
0.000953714
0.000969438
0.00101003
0.0010531
0.00114467
0.00122072
0.00137602
0.00150233
0.00184843
0.0023424
0.00347896
0.00591775
0.00781217
0.0042998
0.00677495
0.00833818
0.00889105
0.00901097
0.00900997
0.00899501
0.00900284
0.00901839
0.00906383
0.00910379
0.00918924
0.00927579
0.00939141
0.00955953
0.0097034
0.00986345
0.0100634
0.0107153
0.00969551
)
;

boundaryField
{
    movingWall
    {
        type            kqRWallFunction;
        value           nonuniform List<scalar> 
20
(
0.0042998
0.00677495
0.00833818
0.00889105
0.00901097
0.00900997
0.00899501
0.00900284
0.00901839
0.00906383
0.00910379
0.00918924
0.00927579
0.00939141
0.00955953
0.0097034
0.00986345
0.0100634
0.0107153
0.00969551
)
;
    }
    fixedWalls
    {
        type            kqRWallFunction;
        value           nonuniform List<scalar> 
60
(
0.000161072
0.000282516
0.000502656
0.000654889
0.000755272
0.000848064
0.000942009
0.00104578
0.00113964
0.00124671
0.00132095
0.00138867
0.00139615
0.00137546
0.00130568
0.00118333
0.000936406
0.000773903
0.00088572
0.0042998
0.000898293
0.00161307
0.00219232
0.00255394
0.00282012
0.00301987
0.00318448
0.00332252
0.00344998
0.00357137
0.00369835
0.00383729
0.00400189
0.004204
0.00448277
0.00486034
0.00540303
0.0062476
0.00781217
0.00969551
0.000161072
0.000352254
0.000750149
0.00119846
0.00153931
0.00175177
0.00186889
0.00192073
0.00193588
0.00191757
0.00185797
0.00178394
0.00168513
0.00159088
0.0014928
0.00140437
0.00132738
0.00125061
0.00106552
0.000898293
)
;
    }
    frontAndBack
    {
        type            empty;
    }
}


// ************************************************************************* //
