/*--------------------------------*- C++ -*----------------------------------*\
| =========                 |                                                 |
| \\      /  F ield         | OpenFOAM: The Open Source CFD Toolbox           |
|  \\    /   O peration     | Version:  4.1                                   |
|   \\  /    A nd           | Web:      www.OpenFOAM.org                      |
|    \\/     M anipulation  |                                                 |
\*---------------------------------------------------------------------------*/
FoamFile
{
    version     2.0;
    format      ascii;
    class       volScalarField;
    location    "7.5";
    object      nut;
}
// * * * * * * * * * * * * * * * * * * * * * * * * * * * * * * * * * * * * * //

dimensions      [0 2 -1 0 0 0 0];

internalField   nonuniform List<scalar> 
400
(
7.1299e-06
1.05449e-05
1.53847e-05
1.9442e-05
2.20306e-05
2.34998e-05
2.42715e-05
2.46054e-05
2.4702e-05
2.45846e-05
2.41998e-05
2.37128e-05
2.3047e-05
2.23932e-05
2.1692e-05
2.10398e-05
2.04549e-05
1.98547e-05
1.83264e-05
1.6827e-05
9.44338e-06
1.77494e-05
2.12406e-05
2.16663e-05
2.20798e-05
1.96779e-05
1.89594e-05
1.8235e-05
1.88056e-05
2.00483e-05
2.10914e-05
2.22357e-05
2.38875e-05
2.50584e-05
2.71341e-05
2.85055e-05
2.92703e-05
2.90648e-05
2.65894e-05
2.25488e-05
1.2597e-05
2.28149e-05
2.24544e-05
2.22244e-05
1.69862e-05
1.63099e-05
1.56131e-05
1.5903e-05
1.59789e-05
1.59845e-05
1.58939e-05
1.54024e-05
1.55794e-05
1.58459e-05
1.70301e-05
1.90306e-05
2.20205e-05
2.55145e-05
2.81574e-05
2.62877e-05
1.43758e-05
2.35166e-05
2.29572e-05
1.80284e-05
1.48794e-05
1.42578e-05
1.36797e-05
1.36331e-05
1.30649e-05
1.28103e-05
1.26106e-05
1.23949e-05
1.19871e-05
1.18163e-05
1.20535e-05
1.33646e-05
1.65149e-05
2.11857e-05
2.72706e-05
2.83735e-05
1.54348e-05
2.47638e-05
2.12988e-05
1.50898e-05
1.33705e-05
1.29798e-05
1.26303e-05
1.28847e-05
1.35908e-05
1.42237e-05
1.4597e-05
1.50545e-05
1.43338e-05
1.32535e-05
1.1975e-05
1.1437e-05
1.33504e-05
1.8239e-05
2.56474e-05
2.98157e-05
1.63545e-05
2.53933e-05
1.91497e-05
1.37708e-05
1.24341e-05
1.2358e-05
1.30123e-05
1.43719e-05
1.68261e-05
1.86454e-05
1.96753e-05
2.136e-05
2.03947e-05
1.83883e-05
1.53995e-05
1.21544e-05
1.18348e-05
1.62125e-05
2.49681e-05
3.08539e-05
1.72361e-05
2.4961e-05
1.7639e-05
1.29242e-05
1.19899e-05
1.24839e-05
1.44645e-05
1.71019e-05
2.09435e-05
2.36776e-05
2.52257e-05
2.76543e-05
2.73271e-05
2.52094e-05
2.08998e-05
1.51106e-05
1.16649e-05
1.4585e-05
2.41921e-05
3.16838e-05
1.81606e-05
2.3071e-05
1.6672e-05
1.25987e-05
1.21818e-05
1.32564e-05
1.62084e-05
1.96407e-05
2.40856e-05
2.71408e-05
2.87579e-05
3.09007e-05
3.11707e-05
2.98697e-05
2.60804e-05
1.86877e-05
1.21937e-05
1.35628e-05
2.40351e-05
3.23634e-05
1.8958e-05
2.22536e-05
1.63107e-05
1.25113e-05
1.23108e-05
1.39813e-05
1.74166e-05
2.1324e-05
2.60169e-05
2.91993e-05
3.08583e-05
3.25959e-05
3.27555e-05
3.18173e-05
2.91577e-05
2.22715e-05
1.32369e-05
1.25618e-05
2.38977e-05
3.29784e-05
1.98288e-05
2.0244e-05
1.61108e-05
1.26718e-05
1.29789e-05
1.47727e-05
1.83285e-05
2.23571e-05
2.67943e-05
3.00633e-05
3.19321e-05
3.30728e-05
3.32371e-05
3.24327e-05
2.98974e-05
2.43324e-05
1.39954e-05
1.19297e-05
2.39481e-05
3.35535e-05
2.04112e-05
1.94018e-05
1.62247e-05
1.30467e-05
1.3112e-05
1.48431e-05
1.81819e-05
2.20743e-05
2.62542e-05
2.94765e-05
3.18207e-05
3.27239e-05
3.30178e-05
3.22157e-05
2.95999e-05
2.48528e-05
1.40251e-05
1.10727e-05
2.40047e-05
3.41445e-05
2.09281e-05
1.79626e-05
1.61759e-05
1.32896e-05
1.3348e-05
1.49057e-05
1.77271e-05
2.11688e-05
2.48686e-05
2.79455e-05
3.04503e-05
3.09733e-05
3.11512e-05
3.10489e-05
2.90959e-05
2.46887e-05
1.38215e-05
1.05829e-05
2.40557e-05
3.47795e-05
2.09856e-05
1.68053e-05
1.59131e-05
1.35909e-05
1.33658e-05
1.44785e-05
1.66607e-05
1.95542e-05
2.26422e-05
2.53984e-05
2.78284e-05
2.83127e-05
2.84195e-05
2.84886e-05
2.65296e-05
2.33766e-05
1.33874e-05
1.02674e-05
2.41859e-05
3.5517e-05
2.083e-05
1.68079e-05
1.5595e-05
1.41575e-05
1.37209e-05
1.42499e-05
1.5481e-05
1.73738e-05
1.96905e-05
2.20446e-05
2.40931e-05
2.48041e-05
2.52292e-05
2.59446e-05
2.43828e-05
2.05683e-05
1.18233e-05
9.28234e-06
2.43875e-05
3.64022e-05
2.02957e-05
1.71284e-05
1.52065e-05
1.40784e-05
1.36714e-05
1.39483e-05
1.46804e-05
1.57581e-05
1.70675e-05
1.89529e-05
2.04465e-05
2.15312e-05
2.21143e-05
2.31034e-05
2.14747e-05
1.69413e-05
1.00022e-05
9.22539e-06
2.53279e-05
3.75892e-05
1.93218e-05
1.84123e-05
1.58951e-05
1.41397e-05
1.36603e-05
1.3713e-05
1.40256e-05
1.4707e-05
1.53524e-05
1.695e-05
1.79241e-05
1.90217e-05
1.92156e-05
1.93422e-05
1.69432e-05
1.20996e-05
7.77984e-06
9.15081e-06
2.69296e-05
3.91398e-05
1.71885e-05
1.85967e-05
1.72029e-05
1.60893e-05
1.48274e-05
1.41196e-05
1.37716e-05
1.38116e-05
1.37735e-05
1.40401e-05
1.4257e-05
1.42058e-05
1.3764e-05
1.26278e-05
1.01034e-05
7.48872e-06
6.28461e-06
1.03808e-05
2.96253e-05
4.12668e-05
1.56232e-05
1.88465e-05
1.85063e-05
1.68885e-05
1.53189e-05
1.37763e-05
1.2175e-05
1.07901e-05
9.5678e-06
8.36961e-06
7.55818e-06
6.93354e-06
6.49743e-06
5.90671e-06
5.75957e-06
6.16458e-06
7.9828e-06
1.46381e-05
3.42302e-05
4.4375e-05
1.67121e-05
1.54063e-05
1.49277e-05
1.38814e-05
1.26979e-05
1.1846e-05
1.10794e-05
1.09366e-05
1.09085e-05
1.11006e-05
1.14933e-05
1.23891e-05
1.31607e-05
1.48458e-05
1.61867e-05
1.88244e-05
2.19893e-05
2.9131e-05
4.48454e-05
4.9621e-05
3.68152e-05
4.62116e-05
5.12652e-05
5.29365e-05
5.32904e-05
5.3287e-05
5.32414e-05
5.32642e-05
5.33098e-05
5.34436e-05
5.35614e-05
5.38126e-05
5.40662e-05
5.44025e-05
5.48887e-05
5.53003e-05
5.57548e-05
5.63175e-05
5.81136e-05
5.52794e-05
)
;

boundaryField
{
    movingWall
    {
        type            nutkWallFunction;
        Cmu             0.09;
        kappa           0.41;
        E               9.8;
        value           nonuniform List<scalar> 
20
(
0
0
6.61528e-07
9.36305e-07
9.94598e-07
9.94113e-07
9.86863e-07
9.9066e-07
9.98186e-07
1.02015e-06
1.03941e-06
1.08043e-06
1.12176e-06
1.17661e-06
1.2557e-06
1.32274e-06
1.39665e-06
1.48803e-06
1.77885e-06
1.31908e-06
)
;
    }
    fixedWalls
    {
        type            nutkWallFunction;
        Cmu             0.09;
        kappa           0.41;
        E               9.8;
        value           nonuniform List<scalar> 
60
(
0
0
0
0
0
0
0
0
0
0
0
0
0
0
0
0
0
0
0
0
0
0
0
0
0
0
0
0
0
0
0
0
0
0
0
0
0
0
3.9016e-07
1.31908e-06
0
0
0
0
0
0
0
0
0
0
0
0
0
0
0
0
0
0
0
0
)
;
    }
    frontAndBack
    {
        type            empty;
    }
}


// ************************************************************************* //
