/*--------------------------------*- C++ -*----------------------------------*\
| =========                 |                                                 |
| \\      /  F ield         | OpenFOAM: The Open Source CFD Toolbox           |
|  \\    /   O peration     | Version:  4.1                                   |
|   \\  /    A nd           | Web:      www.OpenFOAM.org                      |
|    \\/     M anipulation  |                                                 |
\*---------------------------------------------------------------------------*/
FoamFile
{
    version     2.0;
    format      ascii;
    class       volScalarField;
    location    "7.5";
    object      p;
}
// * * * * * * * * * * * * * * * * * * * * * * * * * * * * * * * * * * * * * //

dimensions      [0 2 -2 0 0 0 0];

internalField   nonuniform List<scalar> 
400
(
4.72812e-08
-0.000113705
-0.000289157
-0.000907984
-0.00222246
-0.00415211
-0.00632982
-0.00837319
-0.0100134
-0.0111241
-0.0116038
-0.0113633
-0.0103314
-0.00843705
-0.00563565
-0.00202062
0.00208435
0.00589258
0.00836673
0.00909596
0.000170701
-1.88276e-05
-0.000438862
-0.00142353
-0.00306423
-0.00516131
-0.00734436
-0.00931005
-0.0108922
-0.011949
-0.0124014
-0.0122112
-0.0113373
-0.00967802
-0.00718363
-0.0038664
5.11165e-05
0.00396953
0.00679796
0.0079533
0.000126581
-0.000309641
-0.00119275
-0.00270694
-0.00478362
-0.00707012
-0.00923337
-0.0111125
-0.0125882
-0.0135148
-0.013884
-0.0136897
-0.012917
-0.0115282
-0.00946266
-0.0066758
-0.00320564
0.000632271
0.00382177
0.00542191
-0.000516948
-0.00121765
-0.00258951
-0.00463485
-0.00705423
-0.00942735
-0.0114999
-0.0131364
-0.0142801
-0.014966
-0.0152109
-0.0150086
-0.0143542
-0.0132347
-0.0116165
-0.00943725
-0.00662547
-0.00320478
2.4102e-05
0.00178731
-0.00188319
-0.0027933
-0.00451146
-0.00688126
-0.00939114
-0.011617
-0.013404
-0.0147342
-0.0156308
-0.0161428
-0.0162906
-0.0160834
-0.0155283
-0.0146257
-0.0133633
-0.0117004
-0.00955123
-0.00678161
-0.00383356
-0.00212193
-0.00382877
-0.0048072
-0.00664932
-0.009063
-0.0114319
-0.0133872
-0.0148754
-0.0159495
-0.0166699
-0.017072
-0.0171719
-0.0169827
-0.0165108
-0.0157664
-0.0147538
-0.0134627
-0.0118634
-0.00974392
-0.00735007
-0.00573927
-0.00592637
-0.00688374
-0.00867586
-0.0109509
-0.0130692
-0.0147434
-0.0159809
-0.0168746
-0.0174771
-0.0178137
-0.0178954
-0.0177306
-0.0173271
-0.0166996
-0.015864
-0.0148233
-0.0136123
-0.0120168
-0.0102017
-0.00877293
-0.00780214
-0.00867818
-0.0103372
-0.012421
-0.0142884
-0.0157273
-0.0167832
-0.0175539
-0.0180772
-0.0183713
-0.018444
-0.0183026
-0.0179542
-0.0174137
-0.0167059
-0.0158263
-0.0148792
-0.0136503
-0.0123427
-0.0111029
-0.00919131
-0.0100009
-0.0115143
-0.0134298
-0.0151023
-0.0163769
-0.0173155
-0.0180071
-0.0184791
-0.0187456
-0.0188136
-0.0186893
-0.0183804
-0.0178984
-0.0172788
-0.0164862
-0.0157298
-0.0147159
-0.0137691
-0.0127237
-0.0100157
-0.0107455
-0.0121541
-0.0139583
-0.0155155
-0.0167071
-0.0175896
-0.0182411
-0.0186857
-0.0189374
-0.0190031
-0.0188887
-0.0186027
-0.0181493
-0.0175858
-0.0168049
-0.016207
-0.0152296
-0.0146031
-0.0136443
-0.0102337
-0.010923
-0.0122632
-0.0140086
-0.0155358
-0.0167273
-0.0176122
-0.0182598
-0.0187001
-0.018949
-0.0190149
-0.0189023
-0.0186216
-0.0181675
-0.0176233
-0.016798
-0.0163114
-0.0152211
-0.0149105
-0.013869
-0.00986544
-0.0105472
-0.0118579
-0.0135871
-0.0151702
-0.0164304
-0.0173743
-0.0180587
-0.0185216
-0.0187826
-0.0188523
-0.0187338
-0.0184393
-0.0179647
-0.0173698
-0.0165288
-0.0159589
-0.0147953
-0.01471
-0.0133989
-0.00904627
-0.00972469
-0.0110171
-0.0127218
-0.014423
-0.01581
-0.0168665
-0.0176323
-0.0181491
-0.0184399
-0.0185191
-0.0183875
-0.0180607
-0.0175303
-0.0168492
-0.0159484
-0.0151878
-0.0139983
-0.0139572
-0.0123194
-0.00794119
-0.00856415
-0.00980539
-0.0114648
-0.0132697
-0.0148276
-0.0160532
-0.0169554
-0.0175683
-0.0179146
-0.0180138
-0.0178648
-0.0174857
-0.0168661
-0.0160595
-0.0150256
-0.0140345
-0.0128066
-0.0127006
-0.0108199
-0.00677003
-0.00725872
-0.00834299
-0.00989703
-0.0117297
-0.0134624
-0.0149042
-0.016003
-0.0167642
-0.0171998
-0.017335
-0.0171679
-0.0167189
-0.0159784
-0.015001
-0.0137666
-0.0125322
-0.0111979
-0.0109998
-0.00895115
-0.00573094
-0.00593338
-0.00673415
-0.00807847
-0.0098445
-0.0117104
-0.0133935
-0.0147383
-0.0157032
-0.0162734
-0.0164706
-0.0162961
-0.0157758
-0.0148992
-0.0137188
-0.0122417
-0.0107275
-0.00915777
-0.00879947
-0.00634137
-0.00501783
-0.00484527
-0.00519822
-0.00618842
-0.00777765
-0.00968801
-0.0115846
-0.0131927
-0.0144063
-0.0151647
-0.0154771
-0.015341
-0.0147744
-0.0137686
-0.0123748
-0.0106133
-0.00870617
-0.00665445
-0.00566319
-0.00138601
-0.00453417
-0.00391599
-0.00379292
-0.00437196
-0.00574333
-0.00764962
-0.00970078
-0.0115177
-0.0129503
-0.0139048
-0.0143573
-0.0142939
-0.0137357
-0.0126739
-0.0111121
-0.00903753
-0.00654458
-0.00350674
-0.000506617
0.00879276
-0.00574379
-0.00383218
-0.00299751
-0.00312154
-0.00429385
-0.00619188
-0.00834071
-0.0103313
-0.0119306
-0.0130447
-0.0136199
-0.0136599
-0.0131303
-0.0120231
-0.0102608
-0.00772958
-0.00429518
0.000626252
0.00746118
0.024686
-0.000950074
0.000681269
-0.000240029
-0.00149468
-0.00313536
-0.00521119
-0.00746628
-0.00960281
-0.0113279
-0.0125335
-0.0131475
-0.0131741
-0.0125698
-0.0113187
-0.00932833
-0.00642086
-0.00164457
0.00586857
0.0173059
0.0363094
)
;

boundaryField
{
    movingWall
    {
        type            zeroGradient;
    }
    fixedWalls
    {
        type            zeroGradient;
    }
    frontAndBack
    {
        type            empty;
    }
}


// ************************************************************************* //
