/*--------------------------------*- C++ -*----------------------------------*\
| =========                 |                                                 |
| \\      /  F ield         | OpenFOAM: The Open Source CFD Toolbox           |
|  \\    /   O peration     | Version:  4.1                                   |
|   \\  /    A nd           | Web:      www.OpenFOAM.org                      |
|    \\/     M anipulation  |                                                 |
\*---------------------------------------------------------------------------*/
FoamFile
{
    version     2.0;
    format      ascii;
    class       surfaceScalarField;
    location    "7.5";
    object      phi;
}
// * * * * * * * * * * * * * * * * * * * * * * * * * * * * * * * * * * * * * //

dimensions      [0 3 -1 0 0 0 0];

internalField   nonuniform List<scalar> 
760
(
-4.17927e-08
4.17881e-08
-5.55204e-07
5.13411e-07
-1.578e-06
1.02279e-06
-2.94582e-06
1.36782e-06
-4.37834e-06
1.43252e-06
-5.71577e-06
1.33743e-06
-6.85697e-06
1.14121e-06
-7.76732e-06
9.10342e-07
-8.42542e-06
6.58101e-07
-8.87406e-06
4.48642e-07
-9.10716e-06
2.33102e-07
-9.14529e-06
3.81298e-08
-8.95799e-06
-1.87297e-07
-8.55433e-06
-4.03667e-07
-7.84412e-06
-7.10205e-07
-6.78354e-06
-1.06058e-06
-5.29132e-06
-1.49222e-06
-3.41745e-06
-1.87387e-06
-1.46591e-06
-1.95155e-06
-1.46591e-06
-6.82942e-07
7.2473e-07
-1.78319e-06
1.61366e-06
-3.16341e-06
2.40301e-06
-4.56654e-06
2.77095e-06
-5.86489e-06
2.73087e-06
-6.96595e-06
2.43849e-06
-7.83832e-06
2.01358e-06
-8.49158e-06
1.5636e-06
-8.97132e-06
1.13784e-06
-9.25777e-06
7.35088e-07
-9.35754e-06
3.32872e-07
-9.25766e-06
-6.17487e-08
-9.02447e-06
-4.20482e-07
-8.59009e-06
-8.38049e-07
-7.94397e-06
-1.35633e-06
-6.99755e-06
-2.007e-06
-5.68825e-06
-2.80152e-06
-3.94378e-06
-3.61834e-06
-1.90529e-06
-3.99004e-06
-3.3712e-06
-1.14298e-06
1.86771e-06
-2.50729e-06
2.97797e-06
-3.86873e-06
3.76445e-06
-5.0919e-06
3.99412e-06
-6.11398e-06
3.75294e-06
-6.89351e-06
3.21802e-06
-7.45316e-06
2.57322e-06
-7.79454e-06
1.90498e-06
-7.97129e-06
1.3146e-06
-7.99671e-06
7.60499e-07
-7.94107e-06
2.77234e-07
-7.81127e-06
-1.91546e-07
-7.58237e-06
-6.49382e-07
-7.23887e-06
-1.18155e-06
-6.76948e-06
-1.82572e-06
-6.10642e-06
-2.67005e-06
-5.15866e-06
-3.74928e-06
-3.78429e-06
-4.99271e-06
-2.00108e-06
-5.77324e-06
-5.37228e-06
-1.3166e-06
3.1843e-06
-2.6748e-06
4.33618e-06
-3.86719e-06
4.95685e-06
-4.83752e-06
4.96445e-06
-5.52701e-06
4.44243e-06
-5.93508e-06
3.6261e-06
-6.12455e-06
2.76269e-06
-6.18118e-06
1.96161e-06
-6.17274e-06
1.30616e-06
-6.13302e-06
7.2078e-07
-6.05471e-06
1.98915e-07
-5.932e-06
-3.14253e-07
-5.74309e-06
-8.38295e-07
-5.49511e-06
-1.42952e-06
-5.17538e-06
-2.14545e-06
-4.77232e-06
-3.07312e-06
-4.19536e-06
-4.32624e-06
-3.23799e-06
-5.95009e-06
-1.80625e-06
-7.20498e-06
-7.17853e-06
-1.22667e-06
4.41098e-06
-2.4024e-06
5.5119e-06
-3.37061e-06
5.92505e-06
-4.06316e-06
5.657e-06
-4.44909e-06
4.82836e-06
-4.6039e-06
3.78091e-06
-4.64923e-06
2.80802e-06
-4.66606e-06
1.97843e-06
-4.64917e-06
1.28928e-06
-4.60414e-06
6.75751e-07
-4.52501e-06
1.19787e-07
-4.40135e-06
-4.37916e-07
-4.22914e-06
-1.0105e-06
-4.01412e-06
-1.64455e-06
-3.76481e-06
-2.39476e-06
-3.48356e-06
-3.35437e-06
-3.15169e-06
-4.65812e-06
-2.54502e-06
-6.55675e-06
-1.49505e-06
-8.25495e-06
-8.67358e-06
-1.00594e-06
5.41692e-06
-1.94831e-06
6.45427e-06
-2.6773e-06
6.65405e-06
-3.14615e-06
6.12585e-06
-3.3602e-06
5.04241e-06
-3.4404e-06
3.86111e-06
-3.47318e-06
2.84081e-06
-3.49888e-06
2.00413e-06
-3.50853e-06
1.29893e-06
-3.49341e-06
6.60623e-07
-3.43703e-06
6.34131e-08
-3.33823e-06
-5.36716e-07
-3.18614e-06
-1.16259e-06
-2.98323e-06
-1.84745e-06
-2.74567e-06
-2.63233e-06
-2.50264e-06
-3.59739e-06
-2.29054e-06
-4.87022e-06
-1.97625e-06
-6.87105e-06
-1.18446e-06
-9.04674e-06
-9.85803e-06
-7.55391e-07
6.17231e-06
-1.43307e-06
7.13196e-06
-1.94944e-06
7.17041e-06
-2.26487e-06
6.44129e-06
-2.40714e-06
5.18467e-06
-2.47167e-06
3.92564e-06
-2.51667e-06
2.8858e-06
-2.55831e-06
2.04577e-06
-2.58308e-06
1.32371e-06
-2.58357e-06
6.61105e-07
-2.54899e-06
2.88354e-08
-2.47595e-06
-6.0975e-07
-2.35902e-06
-1.27953e-06
-2.19581e-06
-2.01065e-06
-1.99617e-06
-2.83197e-06
-1.77428e-06
-3.81928e-06
-1.5911e-06
-5.05341e-06
-1.42071e-06
-7.04144e-06
-9.41352e-07
-9.5261e-06
-1.07994e-05
-4.74121e-07
6.64643e-06
-9.30397e-07
7.58823e-06
-1.27676e-06
7.51678e-06
-1.4876e-06
6.65212e-06
-1.59459e-06
5.29166e-06
-1.65292e-06
3.98398e-06
-1.70298e-06
2.93586e-06
-1.74752e-06
2.09031e-06
-1.77565e-06
1.35183e-06
-1.78328e-06
6.68735e-07
-1.76476e-06
1.0314e-08
-1.71817e-06
-6.56338e-07
-1.64077e-06
-1.35693e-06
-1.52766e-06
-2.12376e-06
-1.38316e-06
-2.97647e-06
-1.2175e-06
-3.98493e-06
-1.08858e-06
-5.18233e-06
-1.00478e-06
-7.12523e-06
-7.13292e-07
-9.81758e-06
-1.15127e-05
-2.3387e-07
6.8803e-06
-4.67983e-07
7.82235e-06
-6.59281e-07
7.70808e-06
-7.89383e-07
6.78222e-06
-8.69244e-07
5.37152e-06
-9.27775e-07
4.04251e-06
-9.77819e-07
2.98591e-06
-1.01734e-06
2.12983e-06
-1.04357e-06
1.37806e-06
-1.05627e-06
6.81434e-07
-1.05399e-06
8.03654e-09
-1.03494e-06
-6.75389e-07
-9.98206e-07
-1.39367e-06
-9.36195e-07
-2.18577e-06
-8.53475e-07
-3.05919e-06
-7.44339e-07
-4.09407e-06
-6.72923e-07
-5.25375e-06
-6.33647e-07
-7.16451e-06
-5.4566e-07
-9.90557e-06
-1.20583e-05
2.83699e-08
6.85193e-06
-4.88457e-08
7.89956e-06
-1.14053e-07
7.77328e-06
-1.6772e-07
6.83589e-06
-2.14198e-07
5.418e-06
-2.64273e-07
4.09258e-06
-3.06404e-07
3.02804e-06
-3.36655e-07
2.16008e-06
-3.59638e-07
1.40105e-06
-3.77589e-07
6.99386e-07
-3.91055e-07
2.15022e-08
-3.99126e-07
-6.67318e-07
-4.01744e-07
-1.39105e-06
-3.94513e-07
-2.193e-06
-3.74395e-07
-3.07931e-06
-3.42635e-07
-4.12583e-06
-3.45324e-07
-5.25106e-06
-3.78353e-07
-7.13148e-06
-4.02632e-07
-9.88129e-06
-1.2461e-05
2.43968e-07
6.60796e-06
3.85343e-07
7.75819e-06
4.74236e-07
7.68439e-06
4.6457e-07
6.84556e-06
4.27964e-07
5.45461e-06
3.83627e-07
4.13692e-06
3.48273e-07
3.06339e-06
3.23368e-07
2.18499e-06
3.01523e-07
1.42289e-06
2.77873e-07
7.23036e-07
2.49124e-07
5.02507e-08
2.151e-07
-6.33293e-07
1.75786e-07
-1.35174e-06
1.24873e-07
-2.14209e-06
9.95279e-08
-3.05396e-06
3.8983e-09
-4.0302e-06
1.04677e-08
-5.25763e-06
-1.64841e-07
-6.95617e-06
-3.0372e-07
-9.74241e-06
-1.27647e-05
4.73217e-07
6.13474e-06
7.8575e-07
7.44565e-06
1.01772e-06
7.45242e-06
1.08379e-06
6.77949e-06
1.0659e-06
5.47249e-06
1.02925e-06
4.17358e-06
1.00217e-06
3.09047e-06
9.85274e-07
2.20188e-06
9.67037e-07
1.44113e-06
9.39058e-07
7.51015e-07
8.95484e-07
9.38243e-08
8.35433e-07
-5.73242e-07
7.56735e-07
-1.27304e-06
6.68079e-07
-2.05343e-06
5.45696e-07
-2.93158e-06
4.37986e-07
-3.92249e-06
2.68849e-07
-5.08849e-06
-6.33601e-09
-6.68099e-06
-1.89911e-07
-9.55884e-06
-1.29546e-05
6.73742e-07
5.461e-06
1.17845e-06
6.94094e-06
1.55165e-06
7.07922e-06
1.73984e-06
6.5913e-06
1.77401e-06
5.43832e-06
1.75533e-06
4.19225e-06
1.73136e-06
3.11444e-06
1.71144e-06
2.22181e-06
1.68605e-06
1.46652e-06
1.64676e-06
7.90298e-07
1.58479e-06
1.55795e-07
1.49838e-06
-4.8683e-07
1.382e-06
-1.15666e-06
1.23901e-06
-1.91045e-06
1.04887e-06
-2.74144e-06
8.64947e-07
-3.73856e-06
5.76068e-07
-4.79961e-06
2.56291e-07
-6.36121e-06
-2.24044e-08
-9.28014e-06
-1.2977e-05
8.50356e-07
4.61065e-06
1.52392e-06
6.26738e-06
2.03613e-06
6.56702e-06
2.3756e-06
6.25183e-06
2.50496e-06
5.30896e-06
2.53055e-06
4.16666e-06
2.52477e-06
3.12023e-06
2.51038e-06
2.2362e-06
2.48401e-06
1.49289e-06
2.43845e-06
8.35854e-07
2.36121e-06
2.33035e-07
2.24911e-06
-3.74724e-07
2.09138e-06
-9.98932e-07
1.89107e-06
-1.71013e-06
1.62889e-06
-2.47927e-06
1.33521e-06
-3.44489e-06
9.2609e-07
-4.39049e-06
5.10485e-07
-5.9456e-06
1.17321e-07
-8.88698e-06
-1.28597e-05
9.38646e-07
3.672e-06
1.79841e-06
5.40761e-06
2.4891e-06
5.87633e-06
3.01426e-06
5.72667e-06
3.312e-06
5.01121e-06
3.44771e-06
4.03095e-06
3.49285e-06
3.07508e-06
3.49641e-06
2.23264e-06
3.46754e-06
1.52177e-06
3.40822e-06
8.95171e-07
3.30371e-06
3.37543e-07
3.1521e-06
-2.23117e-07
2.93969e-06
-7.86515e-07
2.66999e-06
-1.44044e-06
2.31274e-06
-2.12201e-06
1.88313e-06
-3.01528e-06
1.33151e-06
-3.83886e-06
7.82651e-07
-5.39675e-06
2.66983e-07
-8.37131e-06
-1.25927e-05
9.69733e-07
2.70227e-06
1.90176e-06
4.47559e-06
2.75454e-06
5.02355e-06
3.48345e-06
4.99776e-06
4.00342e-06
4.49125e-06
4.32585e-06
3.70852e-06
4.50026e-06
2.90066e-06
4.57854e-06
2.15436e-06
4.58392e-06
1.51638e-06
4.53249e-06
9.466e-07
4.41215e-06
4.57888e-07
4.23342e-06
-4.43878e-08
3.96207e-06
-5.15166e-07
3.61027e-06
-1.08863e-06
3.1289e-06
-1.64065e-06
2.52289e-06
-2.40927e-06
1.79473e-06
-3.1107e-06
1.0785e-06
-4.68051e-06
4.34559e-07
-7.72737e-06
-1.21581e-05
7.34921e-07
1.96735e-06
1.81958e-06
3.39093e-06
2.86833e-06
3.9748e-06
3.83064e-06
4.03545e-06
4.61539e-06
3.7065e-06
5.18442e-06
3.1395e-06
5.55567e-06
2.52941e-06
5.7783e-06
1.93173e-06
5.86465e-06
1.43004e-06
5.86215e-06
9.49095e-07
5.74791e-06
5.72133e-07
5.53551e-06
1.68006e-07
5.18741e-06
-1.67059e-07
4.7326e-06
-6.33829e-07
4.09344e-06
-1.00148e-06
3.29312e-06
-1.60896e-06
2.38686e-06
-2.20443e-06
1.49753e-06
-3.79118e-06
6.40151e-07
-6.87e-06
-1.1518e-05
2.47313e-07
1.72003e-06
1.24287e-06
2.39537e-06
2.42475e-06
2.79292e-06
3.62655e-06
2.83365e-06
4.69074e-06
2.64231e-06
5.54595e-06
2.28429e-06
6.16115e-06
1.91422e-06
6.58374e-06
1.50913e-06
6.8144e-06
1.19938e-06
6.90476e-06
8.58733e-07
6.83591e-06
6.40984e-07
6.66501e-06
3.38906e-07
6.34246e-06
1.55487e-07
5.86732e-06
-1.58687e-07
5.21006e-06
-3.44218e-07
4.40503e-06
-8.0393e-07
3.47531e-06
-1.27471e-06
2.4803e-06
-2.79617e-06
1.16866e-06
-5.55836e-06
-1.03493e-05
-5.19876e-07
2.23991e-06
3.89062e-07
1.48643e-06
1.85425e-06
1.32773e-06
3.35107e-06
1.33683e-06
4.6691e-06
1.32428e-06
5.75782e-06
1.19557e-06
6.61468e-06
1.05736e-06
7.25758e-06
8.66233e-07
7.72117e-06
7.3579e-07
8.00553e-06
5.74376e-07
8.17319e-06
4.73317e-07
8.18421e-06
3.27886e-07
8.10011e-06
2.39588e-07
7.84485e-06
9.6575e-08
7.49821e-06
2.42133e-09
6.98944e-06
-2.95161e-07
6.30883e-06
-5.94108e-07
5.15043e-06
-1.63777e-06
2.84519e-06
-3.25312e-06
-7.50414e-06
2.23991e-06
3.72634e-06
5.05407e-06
6.3909e-06
7.71518e-06
8.91075e-06
9.96811e-06
1.08343e-05
1.15701e-05
1.21445e-05
1.26178e-05
1.29457e-05
1.31853e-05
1.32819e-05
1.32843e-05
1.29891e-05
1.2395e-05
1.07573e-05
7.50414e-06
)
;

boundaryField
{
    movingWall
    {
        type            calculated;
        value           uniform 0;
    }
    fixedWalls
    {
        type            calculated;
        value           uniform 0;
    }
    frontAndBack
    {
        type            empty;
        value           nonuniform 0();
    }
}


// ************************************************************************* //
