/*--------------------------------*- C++ -*----------------------------------*\
| =========                 |                                                 |
| \\      /  F ield         | OpenFOAM: The Open Source CFD Toolbox           |
|  \\    /   O peration     | Version:  4.1                                   |
|   \\  /    A nd           | Web:      www.OpenFOAM.org                      |
|    \\/     M anipulation  |                                                 |
\*---------------------------------------------------------------------------*/
FoamFile
{
    version     2.0;
    format      ascii;
    class       volVectorField;
    location    "7.5";
    object      U;
}
// * * * * * * * * * * * * * * * * * * * * * * * * * * * * * * * * * * * * * //

dimensions      [0 1 -1 0 0 0 0];

internalField   nonuniform List<vector> 
400
(
(0.00151005 -0.00309163 0)
(-0.00337651 0.00239973 0)
(-0.0169824 0.00878198 0)
(-0.0438944 0.0149076 0)
(-0.0751178 0.0160129 0)
(-0.103976 0.0144445 0)
(-0.129076 0.0123528 0)
(-0.148826 0.00991939 0)
(-0.163946 0.00774862 0)
(-0.17466 0.00533796 0)
(-0.181147 0.00331151 0)
(-0.183851 0.0013128 0)
(-0.183063 -0.00182026 0)
(-0.17608 -0.00412951 0)
(-0.164437 -0.00822049 0)
(-0.144991 -0.0119908 0)
(-0.118712 -0.0168268 0)
(-0.0846164 -0.0197963 0)
(-0.0480825 -0.0186894 0)
(-0.0154303 -0.0103649 0)
(-0.00538729 0.00531639 0)
(-0.0214278 0.0201465 0)
(-0.0472023 0.0347525 0)
(-0.0780019 0.0418529 0)
(-0.107171 0.0418141 0)
(-0.131728 0.0378663 0)
(-0.150901 0.0319726 0)
(-0.164772 0.0257042 0)
(-0.176626 0.0179256 0)
(-0.183374 0.0119679 0)
(-0.187616 0.00551565 0)
(-0.187451 -0.000151819 0)
(-0.18446 -0.00684964 0)
(-0.177335 -0.0140851 0)
(-0.166006 -0.0232572 0)
(-0.148799 -0.0342559 0)
(-0.125181 -0.0470817 0)
(-0.0940933 -0.0586971 0)
(-0.0587856 -0.0611522 0)
(-0.0209535 -0.0461732 0)
(-0.0109952 0.0257803 0)
(-0.0345615 0.0464599 0)
(-0.0637091 0.0620004 0)
(-0.0920347 0.0674426 0)
(-0.115659 0.0643192 0)
(-0.133121 0.0559819 0)
(-0.145073 0.0449715 0)
(-0.154528 0.0334324 0)
(-0.159032 0.0239633 0)
(-0.160045 0.0143009 0)
(-0.160047 0.00560153 0)
(-0.158009 -0.00327775 0)
(-0.15527 -0.0122257 0)
(-0.149188 -0.0226055 0)
(-0.141202 -0.0351774 0)
(-0.128783 -0.0514175 0)
(-0.11159 -0.0712769 0)
(-0.0869409 -0.0923326 0)
(-0.0579173 -0.103355 0)
(-0.0218421 -0.0917175 0)
(-0.0134839 0.0504733 0)
(-0.0396769 0.073461 0)
(-0.067207 0.0869873 0)
(-0.0907252 0.0888004 0)
(-0.107389 0.0811675 0)
(-0.11721 0.0676624 0)
(-0.122356 0.0529212 0)
(-0.12368 0.0388743 0)
(-0.122916 0.0262134 0)
(-0.123607 0.0148515 0)
(-0.121953 0.00487332 0)
(-0.120504 -0.00488804 0)
(-0.117182 -0.0147833 0)
(-0.113317 -0.0262754 0)
(-0.107726 -0.0404177 0)
(-0.100644 -0.0592851 0)
(-0.0897027 -0.0841639 0)
(-0.0716506 -0.113817 0)
(-0.0503939 -0.134143 0)
(-0.0194148 -0.130201 0)
(-0.0131685 0.0749021 0)
(-0.0370329 0.0972676 0)
(-0.0607966 0.107734 0)
(-0.0785359 0.105412 0)
(-0.0884705 0.0923238 0)
(-0.0919218 0.0742508 0)
(-0.0927203 0.0563537 0)
(-0.0927179 0.0402207 0)
(-0.0929033 0.0265196 0)
(-0.0926045 0.0143737 0)
(-0.0914146 0.00345396 0)
(-0.089531 -0.00713658 0)
(-0.0866093 -0.0179302 0)
(-0.0828828 -0.0299787 0)
(-0.0785082 -0.0445366 0)
(-0.0735826 -0.0637826 0)
(-0.0677848 -0.090823 0)
(-0.0542428 -0.128301 0)
(-0.0407604 -0.157942 0)
(-0.0163514 -0.162274 0)
(-0.0105227 0.0969528 0)
(-0.0308526 0.1191 0)
(-0.0495661 0.125303 0)
(-0.0622035 0.117547 0)
(-0.0674294 0.0988773 0)
(-0.0680679 0.0770136 0)
(-0.0685398 0.0571104 0)
(-0.0692504 0.0402213 0)
(-0.0699828 0.0260721 0)
(-0.0700402 0.0133291 0)
(-0.069492 0.00160527 0)
(-0.0679263 -0.0100617 0)
(-0.0654695 -0.0220667 0)
(-0.0619337 -0.0351015 0)
(-0.0576111 -0.0500531 0)
(-0.052771 -0.06876 0)
(-0.0497993 -0.094487 0)
(-0.0393234 -0.135203 0)
(-0.0345212 -0.175242 0)
(-0.0092995 -0.187627 0)
(-0.00818191 0.115299 0)
(-0.0230872 0.135095 0)
(-0.0367298 0.137394 0)
(-0.0454768 0.125297 0)
(-0.0480084 0.102465 0)
(-0.0481657 0.0783261 0)
(-0.049295 0.0576504 0)
(-0.0504458 0.0407368 0)
(-0.0514097 0.0263393 0)
(-0.0517362 0.0132183 0)
(-0.0514974 0.000818738 0)
(-0.0503761 -0.011686 0)
(-0.0484605 -0.0247466 0)
(-0.0456663 -0.0389594 0)
(-0.0421165 -0.0549568 0)
(-0.0371318 -0.0742525 0)
(-0.0359929 -0.0987535 0)
(-0.0259147 -0.138773 0)
(-0.0275603 -0.187205 0)
(-0.00632418 -0.208131 0)
(-0.00479193 0.128093 0)
(-0.014908 0.147661 0)
(-0.0244442 0.147429 0)
(-0.0301834 0.131428 0)
(-0.0313614 0.105327 0)
(-0.0316928 0.0795595 0)
(-0.0331556 0.0584908 0)
(-0.0343271 0.041524 0)
(-0.0352617 0.0268249 0)
(-0.0356571 0.0132971 0)
(-0.0355993 0.0003117 0)
(-0.0349103 -0.012806 0)
(-0.0336255 -0.0265759 0)
(-0.0316827 -0.0415934 0)
(-0.0294973 -0.0582801 0)
(-0.0246989 -0.0781701 0)
(-0.0258376 -0.102047 0)
(-0.0159749 -0.141544 0)
(-0.0229748 -0.193923 0)
(-0.00194022 -0.223929 0)
(-0.00263399 0.13644 0)
(-0.00731831 0.154284 0)
(-0.0128574 0.152239 0)
(-0.0161738 0.134294 0)
(-0.0167082 0.106584 0)
(-0.0173094 0.0802442 0)
(-0.0188384 0.0592673 0)
(-0.0198476 0.0422774 0)
(-0.0206285 0.0273439 0)
(-0.0210312 0.0134995 0)
(-0.0211581 0.000107328 0)
(-0.0209178 -0.013445 0)
(-0.0203387 -0.0277115 0)
(-0.019194 -0.0433817 0)
(-0.0186591 -0.0606849 0)
(-0.0140137 -0.081096 0)
(-0.017548 -0.10436 0)
(-0.00751983 -0.143016 0)
(-0.0189896 -0.197151 0)
(0.000347341 -0.236446 0)
(0.00125702 0.138388 0)
(-0.00024793 0.158828 0)
(-0.00220621 0.156306 0)
(-0.00351755 0.137166 0)
(-0.00375924 0.108566 0)
(-0.00439944 0.0817421 0)
(-0.00563465 0.0603604 0)
(-0.00635176 0.0430249 0)
(-0.00694634 0.0278523 0)
(-0.0073606 0.0138176 0)
(-0.0076853 0.00023408 0)
(-0.00786871 -0.0135237 0)
(-0.00804751 -0.028002 0)
(-0.00757715 -0.0439901 0)
(-0.00889015 -0.0617206 0)
(-0.00456704 -0.0822939 0)
(-0.0109443 -0.10575 0)
(-0.000756795 -0.142808 0)
(-0.0164694 -0.198103 0)
(0.00333829 -0.245794 0)
(0.00336803 0.135931 0)
(0.00619381 0.157471 0)
(0.00803994 0.155056 0)
(0.0087255 0.13653 0)
(0.00897483 0.108435 0)
(0.00850025 0.0818704 0)
(0.00744223 0.0606112 0)
(0.00682226 0.0433153 0)
(0.00630501 0.0281975 0)
(0.00584737 0.0142027 0)
(0.00531136 0.000656347 0)
(0.00475747 -0.0131017 0)
(0.00379694 -0.0275787 0)
(0.00367053 -0.0435773 0)
(0.000701566 -0.0616572 0)
(0.00434205 -0.0818257 0)
(-0.00464685 -0.105683 0)
(0.00574425 -0.140393 0)
(-0.0144897 -0.196824 0)
(0.00543657 -0.252587 0)
(0.00592503 0.129815 0)
(0.0125028 0.154522 0)
(0.0174939 0.153502 0)
(0.0203755 0.137892 0)
(0.0214331 0.109879 0)
(0.021349 0.0834826 0)
(0.0205646 0.0617534 0)
(0.0200538 0.0439942 0)
(0.0196392 0.0287059 0)
(0.0191744 0.0147536 0)
(0.0184121 0.00139445 0)
(0.0175526 -0.0121596 0)
(0.015809 -0.026412 0)
(0.0150223 -0.0421918 0)
(0.0107811 -0.0601638 0)
(0.0131278 -0.0800863 0)
(0.00183042 -0.103732 0)
(0.0118248 -0.136758 0)
(-0.0132034 -0.193506 0)
(0.00859753 -0.256732 0)
(0.00801986 0.117941 0)
(0.0182517 0.145102 0)
(0.0272074 0.145543 0)
(0.0320563 0.134116 0)
(0.0349819 0.108511 0)
(0.0356671 0.082728 0)
(0.0352264 0.0612613 0)
(0.034685 0.0436921 0)
(0.0341317 0.028738 0)
(0.0335078 0.0152104 0)
(0.0323504 0.00235513 0)
(0.0312449 -0.0107295 0)
(0.0285724 -0.0244718 0)
(0.027319 -0.0398823 0)
(0.021507 -0.0570901 0)
(0.0226672 -0.0772096 0)
(0.00915741 -0.0990423 0)
(0.017938 -0.130885 0)
(-0.0113194 -0.18799 0)
(0.0119946 -0.258815 0)
(0.0105513 0.103516 0)
(0.0233956 0.135468 0)
(0.0356834 0.139439 0)
(0.0432585 0.130786 0)
(0.0483858 0.109445 0)
(0.0505441 0.084567 0)
(0.0509284 0.0627892 0)
(0.0506844 0.0447798 0)
(0.0501237 0.0297028 0)
(0.0495372 0.0163216 0)
(0.0479486 0.00388066 0)
(0.0467677 -0.00867927 0)
(0.0430274 -0.021691 0)
(0.0413344 -0.0363963 0)
(0.033748 -0.0524921 0)
(0.0336405 -0.0721355 0)
(0.0175305 -0.0921684 0)
(0.0241994 -0.123989 0)
(-0.0089774 -0.182237 0)
(0.0165289 -0.259447 0)
(0.011226 0.0835736 0)
(0.0273845 0.117242 0)
(0.0430741 0.125003 0)
(0.0542694 0.120355 0)
(0.062591 0.103695 0)
(0.0674281 0.0820025 0)
(0.0695719 0.0615383 0)
(0.0703029 0.0440841 0)
(0.0698039 0.0295421 0)
(0.0693245 0.0168355 0)
(0.0669351 0.00532266 0)
(0.0655353 -0.0062804 0)
(0.0603709 -0.018008 0)
(0.0580237 -0.0315308 0)
(0.0484002 -0.0459974 0)
(0.0466332 -0.0645521 0)
(0.0272883 -0.0824699 0)
(0.0312318 -0.11419 0)
(-0.00637533 -0.174117 0)
(0.0214541 -0.259579 0)
(0.0125928 0.065784 0)
(0.0285689 0.102416 0)
(0.046694 0.113169 0)
(0.0618395 0.111418 0)
(0.0739818 0.099231 0)
(0.0827238 0.0810495 0)
(0.0880138 0.0625235 0)
(0.0912087 0.0457719 0)
(0.0916478 0.0316993 0)
(0.0921286 0.0193936 0)
(0.089158 0.00865564 0)
(0.087796 -0.0021084 0)
(0.0812704 -0.0124402 0)
(0.0780973 -0.024698 0)
(0.0663723 -0.0371067 0)
(0.0617119 -0.0539911 0)
(0.0385974 -0.0696303 0)
(0.0392595 -0.102468 0)
(-0.00399641 -0.165535 0)
(0.0273937 -0.257737 0)
(0.00559011 0.0410872 0)
(0.0265851 0.0752952 0)
(0.0475427 0.0887899 0)
(0.0665194 0.0906747 0)
(0.0834492 0.0833297 0)
(0.0971552 0.0703749 0)
(0.106567 0.0560947 0)
(0.113808 0.0421926 0)
(0.116143 0.0299221 0)
(0.118702 0.0188625 0)
(0.115657 0.00958619 0)
(0.114608 0.000254775 0)
(0.106531 -0.00796806 0)
(0.101979 -0.0179069 0)
(0.0876793 -0.0269539 0)
(0.0791094 -0.0404725 0)
(0.0523449 -0.0536738 0)
(0.0497226 -0.087307 0)
(-0.000323325 -0.152212 0)
(0.0353216 -0.248088 0)
(-0.00173217 0.0434912 0)
(0.0137543 0.0655057 0)
(0.0375561 0.0745687 0)
(0.0605409 0.0753107 0)
(0.0817853 0.0697991 0)
(0.101786 0.0600457 0)
(0.11576 0.0495948 0)
(0.128279 0.0392746 0)
(0.13321 0.0309196 0)
(0.138735 0.0220121 0)
(0.137024 0.0155181 0)
(0.136915 0.00771213 0)
(0.129359 0.00247842 0)
(0.124366 -0.00539243 0)
(0.109792 -0.0108601 0)
(0.100317 -0.0218003 0)
(0.0738823 -0.0337653 0)
(0.0697924 -0.0676202 0)
(0.0136377 -0.128642 0)
(0.0512311 -0.217577 0)
(-0.00839998 0.0109547 0)
(-0.007388 0.016406 0)
(0.022324 0.0272374 0)
(0.0526696 0.032482 0)
(0.0787937 0.0333105 0)
(0.104067 0.0300915 0)
(0.122385 0.0263483 0)
(0.139421 0.0205197 0)
(0.149416 0.0166323 0)
(0.158483 0.0116478 0)
(0.161812 0.00910057 0)
(0.164594 0.00464323 0)
(0.162673 0.00270836 0)
(0.160334 -0.00212842 0)
(0.152075 -0.00457922 0)
(0.146191 -0.0120503 0)
(0.128404 -0.0192707 0)
(0.120919 -0.0450675 0)
(0.0620392 -0.0879675 0)
(0.0879328 -0.159438 0)
(0.0473775 0.0978849 0)
(0.053093 0.0576092 0)
(0.0869328 0.0358175 0)
(0.115724 0.0271384 0)
(0.140378 0.0233789 0)
(0.165978 0.0203107 0)
(0.187725 0.0180693 0)
(0.208197 0.0157312 0)
(0.224011 0.014 0)
(0.237999 0.0123475 0)
(0.247828 0.0109492 0)
(0.256363 0.00974007 0)
(0.261226 0.00827735 0)
(0.26506 0.00713003 0)
(0.265099 0.00514509 0)
(0.26218 0.00255339 0)
(0.253096 0.000775107 0)
(0.236778 -0.00834179 0)
(0.181049 -0.0206444 0)
(0.168853 -0.116425 0)
)
;

boundaryField
{
    movingWall
    {
        type            fixedValue;
        value           uniform (1 0 0);
    }
    fixedWalls
    {
        type            noSlip;
    }
    frontAndBack
    {
        type            empty;
    }
}


// ************************************************************************* //
