/*--------------------------------*- C++ -*----------------------------------*\
| =========                 |                                                 |
| \\      /  F ield         | OpenFOAM: The Open Source CFD Toolbox           |
|  \\    /   O peration     | Version:  4.1                                   |
|   \\  /    A nd           | Web:      www.OpenFOAM.org                      |
|    \\/     M anipulation  |                                                 |
\*---------------------------------------------------------------------------*/
FoamFile
{
    version     2.0;
    format      ascii;
    class       volScalarField;
    location    "9.5";
    object      epsilon;
}
// * * * * * * * * * * * * * * * * * * * * * * * * * * * * * * * * * * * * * //

dimensions      [0 2 -3 0 0 0 0];

internalField   nonuniform List<scalar> 
400
(
0.000374763
0.00121574
0.00364429
0.00715915
0.0102489
0.012346
0.0135361
0.014066
0.0142134
0.0139579
0.013299
0.0124811
0.0114456
0.0104922
0.00954392
0.00871681
0.00802029
0.0073392
0.00575739
0.00441804
0.000870057
0.00211692
0.00429566
0.0057162
0.00608699
0.00557869
0.00477678
0.00397614
0.00330295
0.00282129
0.00258718
0.00252042
0.00275193
0.00309628
0.00368083
0.00458803
0.00599841
0.00784303
0.00986728
0.0106653
0.00201702
0.00299466
0.00370643
0.00369453
0.00280522
0.00211999
0.0015518
0.00123556
0.00106397
0.000990673
0.000972974
0.00102807
0.00118068
0.00142406
0.00190443
0.00272866
0.00420928
0.00680512
0.0114147
0.016921
0.00295387
0.00288202
0.00290416
0.0021782
0.00134045
0.000933573
0.000649675
0.000516699
0.0004352
0.000397696
0.000384779
0.00039229
0.00046052
0.000574019
0.000827967
0.00135519
0.00253854
0.00520396
0.0114803
0.0212981
0.0036209
0.00260603
0.00218341
0.00125769
0.000714876
0.000463654
0.000309296
0.000236225
0.000190173
0.000169064
0.00016122
0.000163208
0.000195509
0.000256366
0.000395518
0.000725938
0.00161398
0.00393727
0.0106354
0.0247212
0.00428085
0.00227808
0.00159932
0.000780032
0.000420239
0.000254954
0.00016507
0.000121836
9.55141e-05
8.35704e-05
7.928e-05
8.00673e-05
9.73786e-05
0.000132207
0.00021193
0.000413579
0.00105419
0.00310603
0.00996698
0.0273809
0.00498255
0.00197093
0.00120187
0.000536353
0.000275333
0.000159459
0.000102586
7.4587e-05
5.75891e-05
4.9847e-05
4.70598e-05
4.72532e-05
5.75694e-05
7.96255e-05
0.000129749
0.000252951
0.000688045
0.00239545
0.00924124
0.0296197
0.00580404
0.00175165
0.000935259
0.000403009
0.000202865
0.000115564
7.40632e-05
5.34976e-05
4.0851e-05
3.50677e-05
3.29889e-05
3.31189e-05
4.02063e-05
5.58403e-05
9.15369e-05
0.000174188
0.000490679
0.00194415
0.00870175
0.031505
0.0065894
0.0015859
0.000780646
0.000337226
0.000167397
9.47517e-05
6.10375e-05
4.392e-05
3.32393e-05
2.83987e-05
2.67137e-05
2.70138e-05
3.23542e-05
4.45503e-05
7.25528e-05
0.000133583
0.000349841
0.00154656
0.00826677
0.033252
0.00753234
0.00152863
0.000678601
0.000295577
0.000152274
8.81521e-05
5.662e-05
4.03345e-05
3.05344e-05
2.58359e-05
2.41788e-05
2.48485e-05
2.90431e-05
3.94188e-05
6.28972e-05
0.000114998
0.000282674
0.001339
0.0079762
0.0349079
0.00822414
0.00161441
0.000643134
0.000292532
0.000154054
9.00075e-05
5.78828e-05
4.12255e-05
3.13788e-05
2.63835e-05
2.40769e-05
2.46033e-05
2.81078e-05
3.76969e-05
5.87114e-05
0.000106986
0.000250329
0.00120452
0.00781459
0.0366502
0.00887017
0.00186929
0.000662751
0.00030183
0.0001621
9.61952e-05
6.22358e-05
4.44325e-05
3.41844e-05
2.87126e-05
2.61895e-05
2.68449e-05
2.98619e-05
3.82898e-05
5.79528e-05
0.000104878
0.000242915
0.00115967
0.00774489
0.0385708
0.00899465
0.00230869
0.000736034
0.000329095
0.000180016
0.00010937
7.13839e-05
5.12822e-05
4.00277e-05
3.39401e-05
3.11397e-05
3.20463e-05
3.54591e-05
4.45936e-05
6.45898e-05
0.000111867
0.000248534
0.00117678
0.00791738
0.0408954
0.00882264
0.00287439
0.00091576
0.000391892
0.000213191
0.000132527
8.94837e-05
6.52072e-05
5.13676e-05
4.41542e-05
4.08646e-05
4.21446e-05
4.62342e-05
5.65353e-05
7.78687e-05
0.000130827
0.000286513
0.00133805
0.00910409
0.0438639
0.00821358
0.00338395
0.0011813
0.000508351
0.000271314
0.000167471
0.000114126
8.58381e-05
6.95081e-05
6.21572e-05
5.9314e-05
6.11262e-05
6.60889e-05
7.8097e-05
0.000103046
0.000169681
0.000365697
0.00164319
0.0106189
0.0481773
0.00713831
0.0036892
0.00164917
0.000775295
0.000402317
0.000240741
0.000162527
0.00012217
9.90862e-05
8.86759e-05
8.59172e-05
8.84262e-05
9.51747e-05
0.000112034
0.000149857
0.000256296
0.000556358
0.00233891
0.0134784
0.0542806
0.00509559
0.0034743
0.00191949
0.00105996
0.000627465
0.000398626
0.000273868
0.000206848
0.000167659
0.000148083
0.000142776
0.000146319
0.000160156
0.000201997
0.000293888
0.000532529
0.00112938
0.00406898
0.0186848
0.0635234
0.00374336
0.00297612
0.00228924
0.00163049
0.00117749
0.0008858
0.000691407
0.000591631
0.000528037
0.000526905
0.000539134
0.000585719
0.000652753
0.000849043
0.00117797
0.00199175
0.00367896
0.00973934
0.0306855
0.0789222
0.00445866
0.0060923
0.00749192
0.00766058
0.00744656
0.00733223
0.00723565
0.00736485
0.00758614
0.00805344
0.00843661
0.00925197
0.00994385
0.011118
0.0125249
0.016727
0.0227203
0.0375685
0.0702909
0.110223
0.0454948
0.0896293
0.121506
0.133504
0.135126
0.134944
0.134089
0.134223
0.134444
0.135442
0.136347
0.13873
0.140437
0.143884
0.147849
0.151275
0.155273
0.16025
0.176655
0.152233
)
;

boundaryField
{
    movingWall
    {
        Cmu             0.09;
        kappa           0.41;
        E               9.8;
        type            epsilonWallFunction;
        value           nonuniform List<scalar> 
20
(
0.0454948
0.0896293
0.121506
0.133504
0.135126
0.134944
0.134089
0.134223
0.134444
0.135442
0.136347
0.13873
0.140437
0.143884
0.147849
0.151275
0.155273
0.16025
0.176655
0.152233
)
;
    }
    fixedWalls
    {
        Cmu             0.09;
        kappa           0.41;
        E               9.8;
        type            epsilonWallFunction;
        value           nonuniform List<scalar> 
60
(
0.000374763
0.000870057
0.00201702
0.00295387
0.0036209
0.00428085
0.00498255
0.00580404
0.0065894
0.00753234
0.00822414
0.00887017
0.00899465
0.00882264
0.00821358
0.00713831
0.00509559
0.00374336
0.00445866
0.0454948
0.00441804
0.0106653
0.016921
0.0212981
0.0247212
0.0273809
0.0296197
0.031505
0.033252
0.0349079
0.0366502
0.0385708
0.0408954
0.0438639
0.0481773
0.0542806
0.0635234
0.0789222
0.110223
0.152233
0.000374763
0.00121574
0.00364429
0.00715915
0.0102489
0.012346
0.0135361
0.014066
0.0142134
0.0139579
0.013299
0.0124811
0.0114456
0.0104922
0.00954392
0.00871681
0.00802029
0.0073392
0.00575739
0.00441804
)
;
    }
    frontAndBack
    {
        type            empty;
    }
}


// ************************************************************************* //
