/*--------------------------------*- C++ -*----------------------------------*\
| =========                 |                                                 |
| \\      /  F ield         | OpenFOAM: The Open Source CFD Toolbox           |
|  \\    /   O peration     | Version:  4.1                                   |
|   \\  /    A nd           | Web:      www.OpenFOAM.org                      |
|    \\/     M anipulation  |                                                 |
\*---------------------------------------------------------------------------*/
FoamFile
{
    version     2.0;
    format      ascii;
    class       volScalarField;
    location    "9.5";
    object      k;
}
// * * * * * * * * * * * * * * * * * * * * * * * * * * * * * * * * * * * * * //

dimensions      [0 2 -2 0 0 0 0];

internalField   nonuniform List<scalar> 
400
(
0.000176171
0.000386053
0.00080255
0.0012588
0.0015989
0.00181017
0.0019247
0.00197461
0.00198839
0.00196449
0.00190217
0.00182337
0.00172107
0.00162412
0.00152473
0.00143531
0.0013578
0.0012798
0.00108857
0.000912409
0.000308881
0.000663421
0.0010191
0.00118615
0.00123275
0.00111242
0.00101124
0.00090336
0.000836475
0.000797514
0.000783039
0.000793794
0.000858047
0.000934565
0.00105891
0.00121193
0.00140154
0.00159957
0.00172173
0.00164193
0.000541004
0.000882632
0.000975209
0.000958393
0.000731918
0.000621119
0.000516374
0.000462895
0.000427912
0.000411656
0.000406159
0.000410148
0.000443632
0.00049267
0.000594374
0.000755885
0.00101497
0.00139385
0.00190229
0.00223352
0.000697664
0.000879248
0.000867087
0.000659771
0.000465772
0.000376233
0.000300613
0.000264302
0.000233826
0.000219743
0.000213867
0.000213148
0.000229576
0.000256663
0.000315375
0.000431773
0.000670859
0.00110164
0.00187315
0.00260378
0.000799076
0.000858484
0.000718948
0.000454127
0.000312303
0.000241837
0.000186688
0.000161341
0.000147119
0.000141652
0.000140357
0.000146281
0.000155607
0.000174718
0.000207919
0.000280576
0.000467804
0.000879033
0.00174189
0.00287579
0.000893439
0.000811295
0.000579992
0.000332409
0.000221359
0.000163521
0.000129247
0.000115237
0.000109679
0.000108282
0.000110793
0.000119322
0.000128847
0.000145442
0.000169111
0.000211134
0.000344076
0.000725498
0.0016559
0.00307854
0.000988576
0.000746185
0.000478983
0.000259057
0.000166984
0.000122714
0.000102101
9.42879e-05
9.16259e-05
9.11211e-05
9.42696e-05
0.000102559
0.00011423
0.000131441
0.000153495
0.000180152
0.000267829
0.000595931
0.00156133
0.00324414
0.00109445
0.000676597
0.000406382
0.000215496
0.000138141
0.000103246
8.86964e-05
8.32369e-05
8.1199e-05
8.063e-05
8.23845e-05
8.90226e-05
0.000100866
0.000119462
0.000145075
0.000165896
0.000225926
0.000511721
0.00150378
0.00338038
0.00119108
0.000629637
0.000365335
0.000191314
0.000121699
9.26345e-05
8.13388e-05
7.70871e-05
7.556e-05
7.51589e-05
7.64311e-05
8.16555e-05
9.1627e-05
0.000108778
0.000135208
0.000157573
0.000195115
0.000434915
0.00145422
0.00350421
0.00130216
0.000590239
0.000335863
0.000178745
0.000116812
9.06922e-05
8.00773e-05
7.58622e-05
7.41362e-05
7.36362e-05
7.44919e-05
7.86934e-05
8.69832e-05
0.000102171
0.000126334
0.000151358
0.000179459
0.000392704
0.00142955
0.00361958
0.00138074
0.000594251
0.000329582
0.000180104
0.000118158
9.16375e-05
8.05695e-05
7.61778e-05
7.43965e-05
7.3971e-05
7.49721e-05
7.81079e-05
8.51746e-05
9.87147e-05
0.00012012
0.000145128
0.000167737
0.000357895
0.00141604
0.00373902
0.00145213
0.000616542
0.000335124
0.000186438
0.000122914
9.46406e-05
8.22958e-05
7.74479e-05
7.57351e-05
7.57353e-05
7.69602e-05
7.99109e-05
8.54742e-05
9.73792e-05
0.000117112
0.000141309
0.000163364
0.000343326
0.00141116
0.0038685
0.00146572
0.000662577
0.000352445
0.000200248
0.000132316
0.000100903
8.63066e-05
8.04454e-05
7.8582e-05
7.89743e-05
8.02409e-05
8.32774e-05
8.81909e-05
9.89298e-05
0.000116118
0.000139337
0.000161458
0.000339009
0.00143199
0.00402238
0.00144698
0.000741116
0.000393972
0.000230461
0.000151322
0.000112208
9.29088e-05
8.46762e-05
8.17282e-05
8.22921e-05
8.39893e-05
8.80952e-05
9.30887e-05
0.000104412
0.000120062
0.00013893
0.000161476
0.000349763
0.00154749
0.00421472
0.00137962
0.000812423
0.000444891
0.000267009
0.000179362
0.000132363
0.000106694
9.37648e-05
8.82741e-05
8.88183e-05
9.08053e-05
9.61871e-05
0.000101789
0.000113967
0.000127093
0.000142638
0.00017086
0.000390584
0.00171013
0.00448667
0.00125645
0.000883379
0.000545008
0.000341614
0.000224951
0.000164401
0.000130026
0.000112161
0.000101593
0.000101108
0.000102549
0.000107422
0.000112772
0.000124253
0.000134164
0.000151277
0.000191581
0.000474684
0.00199879
0.004858
0.00100359
0.000862516
0.000613047
0.000436816
0.00031638
0.000230988
0.000180004
0.000151665
0.00013314
0.000124896
0.000123417
0.000124904
0.000128956
0.000138646
0.000151596
0.00018219
0.000262842
0.000680886
0.00248009
0.00539489
0.000817061
0.0008023
0.000703396
0.000562418
0.000451467
0.000365244
0.000295818
0.000252355
0.000221671
0.00020517
0.00019478
0.000196067
0.000201001
0.000220237
0.000260115
0.000359884
0.000570644
0.00126599
0.00342557
0.00623484
0.000918046
0.00104812
0.00115389
0.00112422
0.00105152
0.00100835
0.000953954
0.000953468
0.000961563
0.000991834
0.00103061
0.00111924
0.0011936
0.00134343
0.00149055
0.00186804
0.00235894
0.00349491
0.00592559
0.00779004
0.00431857
0.00678677
0.00831297
0.00885157
0.00892302
0.00891501
0.00887723
0.00888316
0.00889286
0.00893683
0.00897658
0.00908091
0.00915526
0.00930453
0.00947467
0.00962049
0.0097893
0.00999738
0.0106686
0.00966121
)
;

boundaryField
{
    movingWall
    {
        type            kqRWallFunction;
        value           nonuniform List<scalar> 
20
(
0.00431857
0.00678677
0.00831297
0.00885157
0.00892302
0.00891501
0.00887723
0.00888316
0.00889286
0.00893683
0.00897658
0.00908091
0.00915526
0.00930453
0.00947467
0.00962049
0.0097893
0.00999738
0.0106686
0.00966121
)
;
    }
    fixedWalls
    {
        type            kqRWallFunction;
        value           nonuniform List<scalar> 
60
(
0.000176171
0.000308881
0.000541004
0.000697664
0.000799076
0.000893439
0.000988576
0.00109445
0.00119108
0.00130216
0.00138074
0.00145213
0.00146572
0.00144698
0.00137962
0.00125645
0.00100359
0.000817061
0.000918046
0.00431857
0.000912409
0.00164193
0.00223352
0.00260378
0.00287579
0.00307854
0.00324414
0.00338038
0.00350421
0.00361958
0.00373902
0.0038685
0.00402238
0.00421472
0.00448667
0.004858
0.00539489
0.00623484
0.00779004
0.00966121
0.000176171
0.000386053
0.00080255
0.0012588
0.0015989
0.00181017
0.0019247
0.00197461
0.00198839
0.00196449
0.00190217
0.00182337
0.00172107
0.00162412
0.00152473
0.00143531
0.0013578
0.0012798
0.00108857
0.000912409
)
;
    }
    frontAndBack
    {
        type            empty;
    }
}


// ************************************************************************* //
