/*--------------------------------*- C++ -*----------------------------------*\
| =========                 |                                                 |
| \\      /  F ield         | OpenFOAM: The Open Source CFD Toolbox           |
|  \\    /   O peration     | Version:  4.1                                   |
|   \\  /    A nd           | Web:      www.OpenFOAM.org                      |
|    \\/     M anipulation  |                                                 |
\*---------------------------------------------------------------------------*/
FoamFile
{
    version     2.0;
    format      ascii;
    class       volScalarField;
    location    "9.5";
    object      nut;
}
// * * * * * * * * * * * * * * * * * * * * * * * * * * * * * * * * * * * * * //

dimensions      [0 2 -1 0 0 0 0];

internalField   nonuniform List<scalar> 
400
(
7.45339e-06
1.1033e-05
1.59065e-05
1.99201e-05
2.24497e-05
2.38866e-05
2.46306e-05
2.4948e-05
2.50349e-05
2.48841e-05
2.44864e-05
2.39739e-05
2.32918e-05
2.26263e-05
2.1923e-05
2.12705e-05
2.06882e-05
2.00852e-05
1.85236e-05
1.69587e-05
9.8691e-06
1.87118e-05
2.17595e-05
2.21521e-05
2.24692e-05
1.99642e-05
1.92671e-05
1.84715e-05
1.90654e-05
2.02895e-05
2.13296e-05
2.25002e-05
2.40784e-05
2.53875e-05
2.74165e-05
2.88119e-05
2.94725e-05
2.93605e-05
2.70382e-05
2.27498e-05
1.30597e-05
2.34128e-05
2.30931e-05
2.23754e-05
1.7187e-05
1.63779e-05
1.54644e-05
1.56079e-05
1.54889e-05
1.5395e-05
1.52592e-05
1.47265e-05
1.50023e-05
1.53401e-05
1.66954e-05
1.88454e-05
2.20262e-05
2.56945e-05
2.85318e-05
2.65337e-05
1.48301e-05
2.41418e-05
2.32996e-05
1.79858e-05
1.4566e-05
1.36461e-05
1.25188e-05
1.21676e-05
1.13068e-05
1.09275e-05
1.06984e-05
1.04231e-05
1.03002e-05
1.03286e-05
1.08115e-05
1.23809e-05
1.59559e-05
2.09889e-05
2.75065e-05
2.8649e-05
1.5871e-05
2.54523e-05
2.1306e-05
1.47579e-05
1.22791e-05
1.13526e-05
1.01415e-05
9.91756e-06
1.02431e-05
1.06817e-05
1.09974e-05
1.17999e-05
1.11464e-05
1.07166e-05
9.83701e-06
9.75987e-06
1.22032e-05
1.76627e-05
2.56763e-05
3.01084e-05
1.6782e-05
2.60035e-05
1.893e-05
1.2749e-05
1.04939e-05
9.43898e-06
9.10783e-06
9.80954e-06
1.1335e-05
1.26271e-05
1.39349e-05
1.60041e-05
1.53435e-05
1.44001e-05
1.2145e-05
9.70067e-06
1.01073e-05
1.52514e-05
2.47598e-05
3.11518e-05
1.76527e-05
2.54252e-05
1.71801e-05
1.12612e-05
9.11453e-06
8.49929e-06
9.14555e-06
1.07273e-05
1.31202e-05
1.49914e-05
1.69956e-05
2.00335e-05
2.03991e-05
1.95277e-05
1.63428e-05
1.15474e-05
9.38301e-06
1.33428e-05
2.37411e-05
3.19787e-05
1.8574e-05
2.35209e-05
1.5892e-05
1.03706e-05
8.46601e-06
8.30178e-06
9.55988e-06
1.16557e-05
1.45258e-05
1.66851e-05
1.85168e-05
2.15361e-05
2.2774e-05
2.30014e-05
2.06933e-05
1.42199e-05
9.3622e-06
1.21221e-05
2.33885e-05
3.26432e-05
1.93765e-05
2.24981e-05
1.53876e-05
9.76821e-06
7.96288e-06
8.15081e-06
9.75532e-06
1.21771e-05
1.54587e-05
1.79022e-05
1.96811e-05
2.22141e-05
2.33539e-05
2.39041e-05
2.26772e-05
1.67285e-05
9.79389e-06
1.10074e-05
2.30232e-05
3.32356e-05
2.02602e-05
2.05114e-05
1.49607e-05
9.72833e-06
8.06477e-06
8.39749e-06
1.01928e-05
1.28415e-05
1.61999e-05
1.88887e-05
2.0655e-05
2.24294e-05
2.3446e-05
2.3834e-05
2.28378e-05
1.79294e-05
1.02539e-05
1.03655e-05
2.30593e-05
3.37781e-05
2.08628e-05
1.96864e-05
1.52008e-05
9.97965e-06
8.15634e-06
8.39674e-06
1.00933e-05
1.26687e-05
1.58749e-05
1.86653e-05
2.10107e-05
2.23171e-05
2.32293e-05
2.32649e-05
2.21181e-05
1.77181e-05
1.01155e-05
9.57064e-06
2.30934e-05
3.43306e-05
2.13956e-05
1.83017e-05
1.52512e-05
1.03645e-05
8.38803e-06
8.38e-06
9.79395e-06
1.21496e-05
1.51011e-05
1.7979e-05
2.03539e-05
2.14088e-05
2.20189e-05
2.2289e-05
2.12995e-05
1.71357e-05
9.88779e-06
9.14794e-06
2.3141e-05
3.49196e-05
2.14961e-05
1.71139e-05
1.5189e-05
1.09663e-05
8.75297e-06
8.37824e-06
9.39139e-06
1.13574e-05
1.38844e-05
1.65387e-05
1.86089e-05
1.94768e-05
1.97407e-05
1.97526e-05
1.87878e-05
1.56198e-05
9.44005e-06
8.78959e-06
2.33099e-05
3.56069e-05
2.13585e-05
1.71976e-05
1.52543e-05
1.21975e-05
9.66666e-06
8.5503e-06
8.68185e-06
9.89624e-06
1.1703e-05
1.38034e-05
1.55362e-05
1.65732e-05
1.68684e-05
1.73548e-05
1.66607e-05
1.32781e-05
8.19058e-06
8.22844e-06
2.36734e-05
3.6448e-05
2.0856e-05
1.75543e-05
1.50795e-05
1.2622e-05
1.06717e-05
9.41527e-06
8.9772e-06
9.21811e-06
1.00896e-05
1.14224e-05
1.25114e-05
1.36222e-05
1.41096e-05
1.4968e-05
1.41075e-05
1.07915e-05
7.18461e-06
8.35574e-06
2.47868e-05
3.76051e-05
1.99037e-05
1.90372e-05
1.621e-05
1.35471e-05
1.13201e-05
1.01042e-05
9.36213e-06
9.26752e-06
9.37464e-06
1.03756e-05
1.1016e-05
1.17449e-05
1.2026e-05
1.24025e-05
1.08103e-05
8.03616e-06
5.93736e-06
8.67035e-06
2.66769e-05
3.91303e-05
1.77893e-05
1.92712e-05
1.76216e-05
1.62014e-05
1.43572e-05
1.20463e-05
1.06479e-05
1.00083e-05
9.51561e-06
9.48064e-06
9.60141e-06
9.59612e-06
9.34503e-06
8.56474e-06
7.03781e-06
5.60981e-06
5.50546e-06
1.02543e-05
2.96271e-05
4.12357e-05
1.60505e-05
1.94655e-05
1.94514e-05
1.74599e-05
1.5579e-05
1.35542e-05
1.13909e-05
9.68758e-06
8.37524e-06
7.19014e-06
6.33335e-06
5.90693e-06
5.57045e-06
5.14155e-06
5.16938e-06
5.85238e-06
7.96612e-06
1.48107e-05
3.44172e-05
4.43297e-05
1.70125e-05
1.62285e-05
1.59949e-05
1.48485e-05
1.33636e-05
1.24803e-05
1.13193e-05
1.11094e-05
1.09692e-05
1.09936e-05
1.13308e-05
1.21857e-05
1.28945e-05
1.46099e-05
1.59647e-05
1.87758e-05
2.20425e-05
2.92611e-05
4.49579e-05
4.95508e-05
3.68945e-05
4.62507e-05
5.11869e-05
5.28189e-05
5.30308e-05
5.30068e-05
5.28939e-05
5.29115e-05
5.29402e-05
5.30707e-05
5.31886e-05
5.34971e-05
5.37158e-05
5.41525e-05
5.46453e-05
5.50643e-05
5.55455e-05
5.6133e-05
5.79873e-05
5.51818e-05
)
;

boundaryField
{
    movingWall
    {
        type            nutkWallFunction;
        Cmu             0.09;
        kappa           0.41;
        E               9.8;
        value           nonuniform List<scalar> 
20
(
0
0
6.48753e-07
9.17017e-07
9.51891e-07
9.47988e-07
9.29559e-07
9.32455e-07
9.37189e-07
9.58613e-07
9.77928e-07
1.02839e-06
1.06414e-06
1.13543e-06
1.21588e-06
1.28418e-06
1.36249e-06
1.45797e-06
1.75839e-06
1.30314e-06
)
;
    }
    fixedWalls
    {
        type            nutkWallFunction;
        Cmu             0.09;
        kappa           0.41;
        E               9.8;
        value           nonuniform List<scalar> 
60
(
0
0
0
0
0
0
0
0
0
0
0
0
0
0
0
0
0
0
0
0
0
0
0
0
0
0
0
0
0
0
0
0
0
0
0
0
0
0
3.78516e-07
1.30314e-06
0
0
0
0
0
0
0
0
0
0
0
0
0
0
0
0
0
0
0
0
)
;
    }
    frontAndBack
    {
        type            empty;
    }
}


// ************************************************************************* //
