/*--------------------------------*- C++ -*----------------------------------*\
| =========                 |                                                 |
| \\      /  F ield         | OpenFOAM: The Open Source CFD Toolbox           |
|  \\    /   O peration     | Version:  4.1                                   |
|   \\  /    A nd           | Web:      www.OpenFOAM.org                      |
|    \\/     M anipulation  |                                                 |
\*---------------------------------------------------------------------------*/
FoamFile
{
    version     2.0;
    format      ascii;
    class       volScalarField;
    location    "9.5";
    object      p;
}
// * * * * * * * * * * * * * * * * * * * * * * * * * * * * * * * * * * * * * //

dimensions      [0 2 -2 0 0 0 0];

internalField   nonuniform List<scalar> 
400
(
5.53164e-08
-0.000120512
-0.000316191
-0.00101132
-0.00244641
-0.00452519
-0.00685965
-0.0090494
-0.0108096
-0.0120019
-0.0125083
-0.0122259
-0.0110848
-0.0090252
-0.00601746
-0.0021825
0.00212206
0.00606752
0.00860099
0.00934049
0.000182438
-2.49618e-05
-0.000486226
-0.00156269
-0.00333697
-0.00558762
-0.00792862
-0.010041
-0.0117472
-0.012889
-0.0133734
-0.0131515
-0.0121756
-0.0103512
-0.00764962
-0.00410766
1.72929e-05
0.00409282
0.00699757
0.00817696
0.000123342
-0.000349277
-0.00130515
-0.00293534
-0.00516006
-0.00760788
-0.00992992
-0.0119563
-0.0135577
-0.0145714
-0.0149761
-0.0147547
-0.0138874
-0.0123385
-0.0100664
-0.00705344
-0.00336809
0.000647941
0.00393749
0.00557861
-0.000580799
-0.00133772
-0.00281068
-0.00499775
-0.00757811
-0.0101157
-0.0123462
-0.0141287
-0.015396
-0.01617
-0.0164548
-0.0162353
-0.0154995
-0.0142339
-0.0124162
-0.0100104
-0.00697812
-0.00336145
-2.935e-06
0.00181312
-0.00205811
-0.00303927
-0.00487831
-0.00740331
-0.0100785
-0.0124683
-0.0144113
-0.0158838
-0.0169006
-0.0174997
-0.0176922
-0.0174792
-0.0168604
-0.0158323
-0.0143875
-0.0125044
-0.0101345
-0.00716096
-0.00406423
-0.00229047
-0.00415508
-0.00520666
-0.00717659
-0.00975
-0.0122816
-0.0143967
-0.0160397
-0.0172539
-0.0180908
-0.0185779
-0.0187251
-0.0185383
-0.0180187
-0.017172
-0.0160027
-0.0145099
-0.012693
-0.0103724
-0.00782206
-0.00614308
-0.00641456
-0.00744263
-0.00936067
-0.011795
-0.0140696
-0.0158993
-0.0172888
-0.0183195
-0.0190345
-0.0194528
-0.0195827
-0.0194273
-0.0189892
-0.0182796
-0.0173133
-0.0160921
-0.0146774
-0.0128947
-0.0109207
-0.00942047
-0.00843779
-0.00937985
-0.0111606
-0.0134001
-0.0154176
-0.0170082
-0.018213
-0.0191178
-0.0197499
-0.020123
-0.0202437
-0.0201163
-0.0197441
-0.0191372
-0.0183202
-0.017281
-0.0161472
-0.014747
-0.0132882
-0.0119752
-0.00993738
-0.0108133
-0.0124437
-0.0145114
-0.0163313
-0.0177544
-0.01884
-0.0196638
-0.0202424
-0.0205865
-0.020702
-0.0205946
-0.0202695
-0.0197311
-0.019018
-0.0180823
-0.0171531
-0.0159802
-0.0148938
-0.0137758
-0.0108269
-0.0116202
-0.0131453
-0.0151031
-0.0168085
-0.0181475
-0.0191763
-0.0199608
-0.0205124
-0.0208419
-0.0209556
-0.0208588
-0.0205606
-0.0200543
-0.0194068
-0.0184925
-0.0177239
-0.0165987
-0.0158425
-0.0148095
-0.0110547
-0.0118073
-0.0132679
-0.0151711
-0.0168517
-0.0181927
-0.0192259
-0.0200096
-0.0205595
-0.0208876
-0.0210024
-0.020906
-0.0206137
-0.0201048
-0.0194792
-0.0185236
-0.0178504
-0.0166248
-0.0161881
-0.0150651
-0.0106398
-0.0113853
-0.0128219
-0.0147197
-0.0164634
-0.0178797
-0.0189766
-0.0198013
-0.0203783
-0.0207212
-0.0208407
-0.0207365
-0.0204259
-0.019892
-0.0192076
-0.0182298
-0.0174508
-0.0161572
-0.0159364
-0.0145415
-0.00972551
-0.0104683
-0.0118901
-0.0137727
-0.0156466
-0.0172004
-0.0184174
-0.0193295
-0.0199664
-0.0203423
-0.020472
-0.020351
-0.02
-0.0194001
-0.0186103
-0.0175567
-0.0165641
-0.0152321
-0.0150352
-0.0133338
-0.00848169
-0.0091732
-0.0105464
-0.0123877
-0.0143814
-0.0161198
-0.0175149
-0.0185698
-0.0193089
-0.0197434
-0.0198933
-0.0197501
-0.0193345
-0.0186282
-0.0176844
-0.0164686
-0.0152245
-0.0138208
-0.0135456
-0.0116366
-0.00715546
-0.00770775
-0.00891971
-0.0106542
-0.0126877
-0.0146154
-0.0162398
-0.0174995
-0.0183949
-0.0189237
-0.0191083
-0.0189393
-0.0184355
-0.0175826
-0.0164307
-0.0149725
-0.0134649
-0.0119132
-0.0115394
-0.0094965
-0.00596397
-0.00621957
-0.00713135
-0.00864323
-0.010613
-0.0126846
-0.0145671
-0.0160835
-0.0171911
-0.01786
-0.0181029
-0.0179146
-0.0173146
-0.0162937
-0.0148974
-0.013149
-0.0113372
-0.0095221
-0.00897908
-0.00655242
-0.00515549
-0.00499396
-0.00542801
-0.00655643
-0.0083375
-0.0104526
-0.0125597
-0.014351
-0.0157156
-0.0165785
-0.0169355
-0.0167759
-0.0161075
-0.0149267
-0.0132799
-0.011207
-0.00897512
-0.00666102
-0.00547691
-0.0012517
-0.00462922
-0.00398793
-0.00389023
-0.00456713
-0.00610934
-0.00821232
-0.0104738
-0.0124813
-0.0140669
-0.0151253
-0.015619
-0.0155269
-0.0148616
-0.0136133
-0.0117831
-0.00937886
-0.00654005
-0.00323504
-5.95679e-05
0.00916861
-0.00576889
-0.00379467
-0.00298139
-0.0031952
-0.00452141
-0.00661238
-0.00896633
-0.0111525
-0.0129084
-0.0141273
-0.0147447
-0.0147553
-0.0141161
-0.0128027
-0.0107685
-0.00791977
-0.00413462
0.00104494
0.0080082
0.0251631
-0.000934245
0.00072969
-0.000220719
-0.00155361
-0.00331861
-0.00557398
-0.00802149
-0.0103561
-0.0122388
-0.0135588
-0.0142123
-0.0142151
-0.0135038
-0.0121212
-0.00988074
-0.00662889
-0.00143523
0.0063518
0.0178759
0.0368013
)
;

boundaryField
{
    movingWall
    {
        type            zeroGradient;
    }
    fixedWalls
    {
        type            zeroGradient;
    }
    frontAndBack
    {
        type            empty;
    }
}


// ************************************************************************* //
