/*--------------------------------*- C++ -*----------------------------------*\
| =========                 |                                                 |
| \\      /  F ield         | OpenFOAM: The Open Source CFD Toolbox           |
|  \\    /   O peration     | Version:  4.1                                   |
|   \\  /    A nd           | Web:      www.OpenFOAM.org                      |
|    \\/     M anipulation  |                                                 |
\*---------------------------------------------------------------------------*/
FoamFile
{
    version     2.0;
    format      ascii;
    class       surfaceScalarField;
    location    "9.5";
    object      phi;
}
// * * * * * * * * * * * * * * * * * * * * * * * * * * * * * * * * * * * * * //

dimensions      [0 3 -1 0 0 0 0];

internalField   nonuniform List<scalar> 
760
(
-5.23219e-08
5.23165e-08
-6.0495e-07
5.52628e-07
-1.67785e-06
1.0729e-06
-3.08814e-06
1.41029e-06
-4.5562e-06
1.46806e-06
-5.92525e-06
1.36905e-06
-7.09407e-06
1.16882e-06
-8.02768e-06
9.33609e-07
-8.7028e-06
6.75126e-07
-9.16105e-06
4.58243e-07
-9.3946e-06
2.33551e-07
-9.42197e-06
2.73694e-08
-9.21214e-06
-2.09831e-07
-8.77671e-06
-4.35426e-07
-8.02365e-06
-7.53062e-07
-6.91654e-06
-1.10711e-06
-5.37547e-06
-1.54107e-06
-3.45806e-06
-1.91741e-06
-1.47778e-06
-1.98028e-06
-1.47778e-06
-7.21862e-07
7.74178e-07
-1.86411e-06
1.69487e-06
-3.28298e-06
2.49178e-06
-4.72345e-06
2.85075e-06
-6.05681e-06
2.80141e-06
-7.18833e-06
2.50058e-06
-8.08891e-06
2.0694e-06
-8.7641e-06
1.6088e-06
-9.26069e-06
1.17172e-06
-9.55672e-06
7.54269e-07
-9.65635e-06
3.33186e-07
-9.54983e-06
-7.91474e-08
-9.29841e-06
-4.61251e-07
-8.83167e-06
-9.0217e-07
-8.14444e-06
-1.44029e-06
-7.14992e-06
-2.10164e-06
-5.79361e-06
-2.89737e-06
-4.0049e-06
-3.70612e-06
-1.9311e-06
-4.05408e-06
-3.40888e-06
-1.1929e-06
1.96708e-06
-2.60126e-06
3.10324e-06
-4.00201e-06
3.89253e-06
-5.26087e-06
4.10961e-06
-6.31441e-06
3.85495e-06
-7.12333e-06
3.30949e-06
-7.70848e-06
2.65456e-06
-8.07301e-06
1.97333e-06
-8.27021e-06
1.36891e-06
-8.30936e-06
7.9342e-07
-8.26039e-06
2.84214e-07
-8.12436e-06
-2.15181e-07
-7.87984e-06
-7.05766e-07
-7.5072e-06
-1.27481e-06
-6.99551e-06
-1.95198e-06
-6.27899e-06
-2.81815e-06
-5.27938e-06
-3.89699e-06
-3.86008e-06
-5.12541e-06
-2.03458e-06
-5.87958e-06
-5.44346e-06
-1.36614e-06
3.33322e-06
-2.76973e-06
4.50682e-06
-3.99861e-06
5.12141e-06
-4.9993e-06
5.11029e-06
-5.71868e-06
4.57434e-06
-6.15933e-06
3.75014e-06
-6.38119e-06
2.87643e-06
-6.46879e-06
2.06092e-06
-6.48535e-06
1.38547e-06
-6.46417e-06
7.72233e-07
-6.39635e-06
2.16403e-07
-6.27404e-06
-3.37499e-07
-6.07318e-06
-9.06624e-07
-5.79886e-06
-1.54912e-06
-5.43668e-06
-2.31416e-06
-4.9761e-06
-3.27874e-06
-4.33354e-06
-4.53954e-06
-3.32256e-06
-6.1364e-06
-1.84733e-06
-7.35481e-06
-7.2908e-06
-1.27372e-06
4.60694e-06
-2.48759e-06
5.7207e-06
-3.48913e-06
6.12295e-06
-4.21381e-06
5.83497e-06
-4.63213e-06
4.99266e-06
-4.81892e-06
3.93694e-06
-4.89646e-06
2.95397e-06
-4.94275e-06
2.1072e-06
-4.94779e-06
1.39052e-06
-4.9196e-06
7.44045e-07
-4.85126e-06
1.48056e-07
-4.73237e-06
-4.56388e-07
-4.55647e-06
-1.08253e-06
-4.32552e-06
-1.78007e-06
-4.0417e-06
-2.59798e-06
-3.7042e-06
-3.61625e-06
-3.30749e-06
-4.93625e-06
-2.63495e-06
-6.80894e-06
-1.53804e-06
-8.45171e-06
-8.82884e-06
-1.0455e-06
5.65244e-06
-2.02334e-06
6.69854e-06
-2.7853e-06
6.8849e-06
-3.28387e-06
6.33354e-06
-3.52702e-06
5.23581e-06
-3.63599e-06
4.04591e-06
-3.69824e-06
3.01622e-06
-3.74627e-06
2.15523e-06
-3.77251e-06
1.41676e-06
-3.76976e-06
7.41294e-07
-3.72071e-06
9.90063e-08
-3.62564e-06
-5.5145e-07
-3.47231e-06
-1.23586e-06
-3.26112e-06
-1.99127e-06
-3.0043e-06
-2.85479e-06
-2.7165e-06
-3.90405e-06
-2.44294e-06
-5.20981e-06
-2.06846e-06
-7.18341e-06
-1.22811e-06
-9.29206e-06
-1.0057e-05
-7.88825e-07
6.44126e-06
-1.49631e-06
7.40603e-06
-2.04015e-06
7.42874e-06
-2.38135e-06
6.67473e-06
-2.54793e-06
5.40239e-06
-2.64009e-06
4.13807e-06
-2.70926e-06
3.08538e-06
-2.76778e-06
2.21375e-06
-2.80411e-06
1.45309e-06
-2.81082e-06
7.48005e-07
-2.78132e-06
6.95058e-08
-2.71187e-06
-6.20894e-07
-2.59581e-06
-1.35192e-06
-2.42732e-06
-2.15976e-06
-2.21341e-06
-3.0687e-06
-1.96179e-06
-4.15567e-06
-1.72821e-06
-5.44339e-06
-1.50464e-06
-7.40698e-06
-9.79903e-07
-9.8168e-06
-1.10369e-05
-4.98981e-07
6.94024e-06
-9.8178e-07
7.88883e-06
-1.35152e-06
7.79848e-06
-1.58367e-06
6.90689e-06
-1.7116e-06
5.53032e-06
-1.78996e-06
4.21644e-06
-1.85669e-06
3.15212e-06
-1.91386e-06
2.27091e-06
-1.94969e-06
1.48892e-06
-1.96081e-06
7.59124e-07
-1.94384e-06
5.25382e-08
-1.89812e-06
-6.66609e-07
-1.8213e-06
-1.42874e-06
-1.70552e-06
-2.27554e-06
-1.55379e-06
-3.22043e-06
-1.36804e-06
-4.34142e-06
-1.2003e-06
-5.61113e-06
-1.0775e-06
-7.52979e-06
-7.45454e-07
-1.01488e-05
-1.17823e-05
-2.54379e-07
7.19462e-06
-5.04639e-07
8.13909e-06
-7.11102e-07
8.00495e-06
-8.57703e-07
7.05349e-06
-9.51753e-07
5.62437e-06
-1.02446e-06
4.28915e-06
-1.08788e-06
3.21553e-06
-1.13874e-06
2.32177e-06
-1.17148e-06
1.52166e-06
-1.18711e-06
7.7475e-07
-1.18503e-06
5.04635e-08
-1.16463e-06
-6.87009e-07
-1.12657e-06
-1.46681e-06
-1.06154e-06
-2.34057e-06
-9.75087e-07
-3.30689e-06
-8.50605e-07
-4.4659e-06
-7.55501e-07
-5.70623e-06
-6.82087e-07
-7.60321e-06
-5.6778e-07
-1.02631e-05
-1.23501e-05
1.89065e-08
7.17572e-06
-6.92763e-08
8.22727e-06
-1.46826e-07
8.0825e-06
-2.09559e-07
7.11622e-06
-2.65277e-07
5.68009e-06
-3.23995e-07
4.34787e-06
-3.7369e-07
3.26523e-06
-4.10367e-07
2.35845e-06
-4.37721e-07
1.54901e-06
-4.57775e-07
7.94804e-07
-4.71652e-07
6.43401e-08
-4.77005e-07
-6.81656e-07
-4.77477e-07
-1.46633e-06
-4.66453e-07
-2.35159e-06
-4.46888e-07
-3.32645e-06
-4.01661e-07
-4.51113e-06
-3.93842e-07
-5.71405e-06
-4.02743e-07
-7.59431e-06
-4.14055e-07
-1.02518e-05
-1.27641e-05
2.41193e-07
6.93452e-06
3.81925e-07
8.08654e-06
4.67504e-07
7.99692e-06
4.535e-07
7.13022e-06
4.16128e-07
5.71746e-06
3.72764e-07
4.39123e-06
3.36336e-07
3.30166e-06
3.07908e-07
2.38688e-06
2.81388e-07
1.57553e-06
2.55071e-07
8.21122e-07
2.25978e-07
9.34332e-08
1.93296e-07
-6.48974e-07
1.58137e-07
-1.43117e-06
1.06395e-07
-2.29985e-06
8.66032e-08
-3.30666e-06
-7.1198e-09
-4.41741e-06
4.23524e-09
-5.72541e-06
-1.65903e-07
-7.42417e-06
-3.00686e-07
-1.0117e-05
-1.30648e-05
4.83862e-07
6.45066e-06
8.02413e-07
7.76799e-06
1.0369e-06
7.76243e-06
1.10534e-06
7.06178e-06
1.09117e-06
5.73163e-06
1.06096e-06
4.42144e-06
1.03997e-06
3.32264e-06
1.02572e-06
2.40112e-06
1.00729e-06
1.59396e-06
9.79493e-07
8.48921e-07
9.35848e-07
1.37078e-07
8.77538e-07
-5.90664e-07
7.97755e-07
-1.35139e-06
7.14755e-07
-2.21685e-06
5.87076e-07
-3.17898e-06
4.82611e-07
-4.31294e-06
2.99274e-07
-5.54207e-06
1.47858e-08
-7.13968e-06
-1.67829e-07
-9.93443e-06
-1.32327e-05
6.96991e-07
5.75367e-06
1.21993e-06
7.24505e-06
1.60621e-06
7.37615e-06
1.79981e-06
6.86819e-06
1.8449e-06
5.68653e-06
1.83839e-06
4.42796e-06
1.82848e-06
3.33255e-06
1.81947e-06
2.41013e-06
1.79879e-06
1.61464e-06
1.76079e-06
8.86925e-07
1.69659e-06
2.01276e-07
1.60925e-06
-5.0332e-07
1.48992e-06
-1.23207e-06
1.35032e-06
-2.07725e-06
1.15215e-06
-2.98081e-06
9.65234e-07
-4.12603e-06
6.4786e-07
-5.2247e-06
3.13702e-07
-6.80552e-06
1.31499e-08
-9.63388e-06
-1.32195e-05
8.85199e-07
4.86847e-06
1.58765e-06
6.5426e-06
2.12393e-06
6.83987e-06
2.47752e-06
6.5146e-06
2.62051e-06
5.54354e-06
2.6637e-06
4.38477e-06
2.67505e-06
3.3212e-06
2.67641e-06
2.40877e-06
2.66e-06
1.63105e-06
2.62016e-06
9.26766e-07
2.54339e-06
2.78047e-07
2.43266e-06
-3.92594e-07
2.27238e-06
-1.07178e-06
2.07224e-06
-1.87711e-06
1.80044e-06
-2.709e-06
1.49306e-06
-3.81864e-06
1.04249e-06
-4.77413e-06
5.91253e-07
-6.35429e-06
1.5515e-07
-9.19778e-06
-1.30644e-05
9.89408e-07
3.87906e-06
1.88719e-06
5.64482e-06
2.61171e-06
6.11534e-06
3.16245e-06
5.96387e-06
3.479e-06
5.22699e-06
3.6375e-06
4.22627e-06
3.70451e-06
3.25419e-06
3.72911e-06
2.38417e-06
3.71567e-06
1.64449e-06
3.66954e-06
9.72897e-07
3.56911e-06
3.7847e-07
3.42079e-06
-2.44264e-07
3.20423e-06
-8.5522e-07
2.92891e-06
-1.6018e-06
2.5551e-06
-2.33519e-06
2.0953e-06
-3.35884e-06
1.49369e-06
-4.17252e-06
8.87555e-07
-5.74815e-06
3.15384e-07
-8.62561e-06
-1.2749e-05
1.02262e-06
2.85644e-06
2.00948e-06
4.65796e-06
2.90609e-06
5.21873e-06
3.67436e-06
5.1956e-06
4.22407e-06
4.67728e-06
4.5753e-06
3.87505e-06
4.77669e-06
3.0528e-06
4.8812e-06
2.27967e-06
4.90516e-06
1.62053e-06
4.8711e-06
1.00696e-06
4.75993e-06
4.89645e-07
4.58529e-06
-6.96284e-08
4.31308e-06
-5.83006e-07
3.9509e-06
-1.23962e-06
3.44663e-06
-1.83093e-06
2.79231e-06
-2.70452e-06
1.99917e-06
-3.37938e-06
1.19882e-06
-4.9478e-06
4.87443e-07
-7.91423e-06
-1.22615e-05
8.20141e-07
2.0363e-06
1.94495e-06
3.53315e-06
3.04024e-06
4.12344e-06
4.05211e-06
4.18373e-06
4.87697e-06
3.85242e-06
5.48458e-06
3.26744e-06
5.88964e-06
2.64773e-06
6.14865e-06
2.02066e-06
6.263e-06
1.50617e-06
6.28562e-06
9.84337e-07
6.18799e-06
5.8728e-07
5.9822e-06
1.36158e-07
5.6332e-06
-2.34002e-07
5.15729e-06
-7.63705e-07
4.48044e-06
-1.15408e-06
3.6076e-06
-1.83168e-06
2.61351e-06
-2.38529e-06
1.62256e-06
-3.95685e-06
6.91319e-07
-6.98299e-06
-1.15702e-05
2.9589e-07
1.74041e-06
1.36164e-06
2.4674e-06
2.60517e-06
2.87991e-06
3.86566e-06
2.92324e-06
4.97727e-06
2.7408e-06
5.87933e-06
2.36538e-06
6.53241e-06
1.99465e-06
6.99414e-06
1.55893e-06
7.25571e-06
1.24461e-06
7.37043e-06
8.69613e-07
7.31354e-06
6.44178e-07
7.14916e-06
3.00535e-07
6.81557e-06
9.95865e-08
6.2965e-06
-2.44637e-07
5.5876e-06
-4.45176e-07
4.69211e-06
-9.36193e-07
3.6664e-06
-1.35958e-06
2.58283e-06
-2.87329e-06
1.20867e-06
-5.60882e-06
-1.03615e-05
-4.91219e-07
2.23163e-06
4.74429e-07
1.50175e-06
1.9948e-06
1.35954e-06
3.54583e-06
1.37221e-06
4.91254e-06
1.37409e-06
6.04791e-06
1.23001e-06
6.9445e-06
1.09806e-06
7.6196e-06
8.83827e-07
8.10473e-06
7.59483e-07
8.40399e-06
5.70353e-07
8.57003e-06
4.78134e-07
8.57422e-06
2.96344e-07
8.44943e-06
2.2438e-07
8.15463e-06
5.01644e-08
7.75138e-06
-4.19289e-08
7.14791e-06
-3.3272e-07
6.40352e-06
-6.15193e-07
5.2004e-06
-1.67017e-06
2.86342e-06
-3.27184e-06
-7.49813e-06
2.23163e-06
3.73338e-06
5.09292e-06
6.46513e-06
7.83922e-06
9.06924e-06
1.01673e-05
1.10511e-05
1.18106e-05
1.2381e-05
1.28591e-05
1.31554e-05
1.33798e-05
1.343e-05
1.3388e-05
1.30553e-05
1.24401e-05
1.077e-05
7.49813e-06
)
;

boundaryField
{
    movingWall
    {
        type            calculated;
        value           uniform 0;
    }
    fixedWalls
    {
        type            calculated;
        value           uniform 0;
    }
    frontAndBack
    {
        type            empty;
        value           nonuniform 0();
    }
}


// ************************************************************************* //
