/*--------------------------------*- C++ -*----------------------------------*\
| =========                 |                                                 |
| \\      /  F ield         | OpenFOAM: The Open Source CFD Toolbox           |
|  \\    /   O peration     | Version:  4.1                                   |
|   \\  /    A nd           | Web:      www.OpenFOAM.org                      |
|    \\/     M anipulation  |                                                 |
\*---------------------------------------------------------------------------*/
FoamFile
{
    version     2.0;
    format      ascii;
    class       volVectorField;
    location    "9.5";
    object      U;
}
// * * * * * * * * * * * * * * * * * * * * * * * * * * * * * * * * * * * * * //

dimensions      [0 1 -1 0 0 0 0];

internalField   nonuniform List<vector> 
400
(
(0.00144404 -0.00313292 0)
(-0.00373806 0.00276238 0)
(-0.0184209 0.00949682 0)
(-0.046476 0.0154956 0)
(-0.0784568 0.0164092 0)
(-0.107961 0.0147901 0)
(-0.133655 0.0126441 0)
(-0.153898 0.0101607 0)
(-0.16943 0.00792837 0)
(-0.180408 0.00541978 0)
(-0.186903 0.00332178 0)
(-0.189529 0.00122235 0)
(-0.188325 -0.00217033 0)
(-0.180737 -0.00451593 0)
(-0.16831 -0.00876214 0)
(-0.147969 -0.0125291 0)
(-0.120752 -0.0174043 0)
(-0.085822 -0.0202378 0)
(-0.0486767 -0.0189117 0)
(-0.0154276 -0.0103417 0)
(-0.00580258 0.00587387 0)
(-0.0225139 0.0215011 0)
(-0.0491772 0.0361735 0)
(-0.0809297 0.043073 0)
(-0.110764 0.042909 0)
(-0.135979 0.0388167 0)
(-0.155718 0.0328007 0)
(-0.170095 0.0264056 0)
(-0.182348 0.0184002 0)
(-0.18937 0.0122374 0)
(-0.193704 0.00550072 0)
(-0.193409 -0.000459401 0)
(-0.190069 -0.00752051 0)
(-0.182354 -0.0150981 0)
(-0.17028 -0.0245739 0)
(-0.152192 -0.035704 0)
(-0.127634 -0.0485578 0)
(-0.0956637 -0.0600099 0)
(-0.0598092 -0.0619862 0)
(-0.0210887 -0.0465365 0)
(-0.0116273 0.0273218 0)
(-0.0359382 0.048454 0)
(-0.0660303 0.0640972 0)
(-0.0952217 0.069317 0)
(-0.119435 0.0659495 0)
(-0.137567 0.0573782 0)
(-0.149984 0.0462425 0)
(-0.159961 0.0344361 0)
(-0.164913 0.024742 0)
(-0.16628 0.0147171 0)
(-0.16648 0.0055996 0)
(-0.164416 -0.00379613 0)
(-0.161343 -0.0132896 0)
(-0.154713 -0.0242609 0)
(-0.145922 -0.0373142 0)
(-0.132629 -0.0538506 0)
(-0.114394 -0.0736996 0)
(-0.0887005 -0.0945401 0)
(-0.0592354 -0.105042 0)
(-0.0221253 -0.0927435 0)
(-0.0141273 0.0529642 0)
(-0.0411632 0.0764363 0)
(-0.0696265 0.0899261 0)
(-0.0937746 0.0913534 0)
(-0.111006 0.0833906 0)
(-0.121456 0.0696906 0)
(-0.127247 0.054699 0)
(-0.129242 0.0404456 0)
(-0.129036 0.0274596 0)
(-0.130224 0.0156126 0)
(-0.128773 0.00505406 0)
(-0.127471 -0.00544123 0)
(-0.12389 -0.0161709 0)
(-0.119615 -0.0285943 0)
(-0.113175 -0.0435777 0)
(-0.105145 -0.063 0)
(-0.0930682 -0.0878486 0)
(-0.0735032 -0.117054 0)
(-0.0518082 -0.13672 0)
(-0.0197591 -0.132047 0)
(-0.0138196 0.0782352 0)
(-0.0384326 0.100941 0)
(-0.0629555 0.111156 0)
(-0.0813359 0.108479 0)
(-0.0918862 0.0951578 0)
(-0.0960042 0.0769535 0)
(-0.0974056 0.0589232 0)
(-0.0980323 0.0425304 0)
(-0.0987166 0.0283429 0)
(-0.0988219 0.0156005 0)
(-0.0979093 0.00393587 0)
(-0.0962044 -0.00756733 0)
(-0.0932537 -0.0194101 0)
(-0.0892417 -0.0326875 0)
(-0.0843025 -0.0485009 0)
(-0.0784079 -0.0687574 0)
(-0.0717065 -0.0959983 0)
(-0.0562152 -0.132795 0)
(-0.0421715 -0.161557 0)
(-0.0167364 -0.16507 0)
(-0.0110725 0.101188 0)
(-0.032019 0.123564 0)
(-0.0515832 0.129573 0)
(-0.0647609 0.121387 0)
(-0.0705517 0.102399 0)
(-0.0717242 0.0803977 0)
(-0.0727561 0.0603578 0)
(-0.0740296 0.0430483 0)
(-0.075114 0.028271 0)
(-0.0754756 0.0147947 0)
(-0.0751195 0.00223498 0)
(-0.0736917 -0.0104343 0)
(-0.0712502 -0.0235717 0)
(-0.067569 -0.0379645 0)
(-0.0628792 -0.0544214 0)
(-0.0572453 -0.0745944 0)
(-0.0537753 -0.100877 0)
(-0.0411728 -0.141169 0)
(-0.0361287 -0.179745 0)
(-0.00945056 -0.191285 0)
(-0.00868776 0.120229 0)
(-0.0240167 0.140146 0)
(-0.0384919 0.142094 0)
(-0.0476194 0.129463 0)
(-0.0506364 0.106378 0)
(-0.0512391 0.0822343 0)
(-0.0529381 0.0614151 0)
(-0.0545111 0.0439313 0)
(-0.0557148 0.0288025 0)
(-0.0562297 0.0148542 0)
(-0.0560986 0.00155894 0)
(-0.0550675 -0.0120027 0)
(-0.0531932 -0.026292 0)
(-0.050361 -0.0419999 0)
(-0.0467024 -0.0596879 0)
(-0.040836 -0.0808276 0)
(-0.0396761 -0.106183 0)
(-0.0275633 -0.145789 0)
(-0.0289886 -0.19278 0)
(-0.00641597 -0.212698 0)
(-0.00515704 0.133678 0)
(-0.0156003 0.153373 0)
(-0.0259377 0.152785 0)
(-0.0319302 0.136306 0)
(-0.0335288 0.109938 0)
(-0.0341806 0.0841118 0)
(-0.0361213 0.0627033 0)
(-0.0375529 0.045026 0)
(-0.0386691 0.0294997 0)
(-0.0391589 0.0150783 0)
(-0.0391576 0.00116382 0)
(-0.0384991 -0.0129955 0)
(-0.0372335 -0.0280088 0)
(-0.0352181 -0.0446129 0)
(-0.0332255 -0.0631113 0)
(-0.0275136 -0.0851828 0)
(-0.0289429 -0.110353 0)
(-0.0172221 -0.14943 0)
(-0.0242831 -0.200334 0)
(-0.00185642 -0.229193 0)
(-0.00299517 0.142486 0)
(-0.00785148 0.160371 0)
(-0.0138837 0.157887 0)
(-0.0174296 0.139341 0)
(-0.0182425 0.111313 0)
(-0.0190262 0.0848999 0)
(-0.0209754 0.0636411 0)
(-0.0221815 0.0459619 0)
(-0.0231303 0.0301277 0)
(-0.023594 0.0153152 0)
(-0.023761 0.000936414 0)
(-0.0235214 -0.0136901 0)
(-0.0229715 -0.0291943 0)
(-0.0215812 -0.0464927 0)
(-0.0214683 -0.0656547 0)
(-0.0158415 -0.0884599 0)
(-0.0199482 -0.113329 0)
(-0.0082877 -0.151618 0)
(-0.0199809 -0.204184 0)
(0.000522478 -0.242271 0)
(0.00108238 0.144818 0)
(-0.000442922 0.165305 0)
(-0.00293811 0.162405 0)
(-0.00429889 0.142761 0)
(-0.00471477 0.113819 0)
(-0.00542894 0.0869034 0)
(-0.00697164 0.0651532 0)
(-0.00776842 0.0469882 0)
(-0.00846459 0.0307728 0)
(-0.008921 0.015685 0)
(-0.00928732 0.00107158 0)
(-0.00942997 -0.0138068 0)
(-0.00973106 -0.0295088 0)
(-0.00879378 -0.0471226 0)
(-0.0107187 -0.0667346 0)
(-0.00544571 -0.0898635 0)
(-0.0124779 -0.115111 0)
(-0.00101868 -0.151897 0)
(-0.017189 -0.205521 0)
(0.00366554 -0.251878 0)
(0.00327778 0.142428 0)
(0.0061541 0.164043 0)
(0.00789198 0.16122 0)
(0.00852361 0.142095 0)
(0.00871836 0.113566 0)
(0.00832207 0.0867885 0)
(0.0071476 0.0651928 0)
(0.00655261 0.0471874 0)
(0.00595189 0.0311175 0)
(0.00543591 0.016088 0)
(0.00482195 0.00149447 0)
(0.00439379 -0.0134285 0)
(0.00315077 -0.0291616 0)
(0.00365862 -0.0467784 0)
(-2.56064e-05 -0.0667333 0)
(0.00448152 -0.0896133 0)
(-0.0051761 -0.115091 0)
(0.00600498 -0.149798 0)
(-0.0147783 -0.204435 0)
(0.00586839 -0.258685 0)
(0.0059242 0.136404 0)
(0.0129141 0.161147 0)
(0.0176879 0.159914 0)
(0.0207736 0.143701 0)
(0.0218477 0.115267 0)
(0.021954 0.0886665 0)
(0.021212 0.0666235 0)
(0.0208472 0.048156 0)
(0.0204597 0.031867 0)
(0.020033 0.0167691 0)
(0.0191602 0.00227128 0)
(0.0185444 -0.0125004 0)
(0.0163357 -0.0280232 0)
(0.0163024 -0.0454444 0)
(0.0111863 -0.0651979 0)
(0.0144438 -0.088018 0)
(0.00240907 -0.112951 0)
(0.0125467 -0.146206 0)
(-0.0130539 -0.201061 0)
(0.00917935 -0.262525 0)
(0.00820726 0.124075 0)
(0.0189889 0.151412 0)
(0.0280139 0.151629 0)
(0.0331265 0.139772 0)
(0.0361812 0.113494 0)
(0.0371943 0.0873584 0)
(0.0369937 0.0655556 0)
(0.036759 0.0473978 0)
(0.0363483 0.0316159 0)
(0.0358965 0.0170661 0)
(0.0344656 0.00317659 0)
(0.0337479 -0.0111024 0)
(0.0303463 -0.0260337 0)
(0.0300198 -0.0432237 0)
(0.023099 -0.0619973 0)
(0.0252661 -0.0851179 0)
(0.0108771 -0.107876 0)
(0.0191978 -0.14002 0)
(-0.0105803 -0.195287 0)
(0.0126645 -0.264082 0)
(0.010786 0.109405 0)
(0.0244583 0.141538 0)
(0.0370496 0.14542 0)
(0.0450607 0.136441 0)
(0.0504026 0.114496 0)
(0.0529532 0.0892256 0)
(0.0537063 0.0670935 0)
(0.053884 0.0485315 0)
(0.0534809 0.0327406 0)
(0.0533367 0.0183828 0)
(0.0513155 0.00493063 0)
(0.0508202 -0.00892954 0)
(0.0461748 -0.0231275 0)
(0.0455572 -0.039721 0)
(0.0367321 -0.0571846 0)
(0.037609 -0.0797284 0)
(0.0205224 -0.100286 0)
(0.0260256 -0.132447 0)
(-0.00782206 -0.188906 0)
(0.0172524 -0.263971 0)
(0.0118329 0.0882392 0)
(0.0288267 0.122508 0)
(0.0450635 0.130252 0)
(0.0568696 0.125507 0)
(0.0655796 0.108275 0)
(0.0708454 0.0861012 0)
(0.0734224 0.0651804 0)
(0.0748082 0.0471152 0)
(0.0743757 0.0319094 0)
(0.0747704 0.018315 0)
(0.0718111 0.00600771 0)
(0.0713752 -0.00681694 0)
(0.0651746 -0.0195016 0)
(0.0639126 -0.0348255 0)
(0.0529937 -0.0503428 0)
(0.0520096 -0.0716005 0)
(0.031597 -0.0894706 0)
(0.0337107 -0.121527 0)
(-0.00489403 -0.17966 0)
(0.0221572 -0.263165 0)
(0.0130242 0.0699085 0)
(0.0303194 0.106938 0)
(0.0492244 0.117833 0)
(0.0651331 0.116139 0)
(0.0779414 0.103672 0)
(0.0873006 0.085089 0)
(0.0929343 0.0662222 0)
(0.097152 0.0488969 0)
(0.0974316 0.0342795 0)
(0.0991438 0.0210564 0)
(0.0955763 0.00967296 0)
(0.0953117 -0.002339 0)
(0.0878524 -0.0134819 0)
(0.0856384 -0.0275 0)
(0.0728171 -0.0408048 0)
(0.0685018 -0.0599961 0)
(0.0442171 -0.0751733 0)
(0.0422252 -0.10831 0)
(-0.00236093 -0.169799 0)
(0.0280303 -0.26014 0)
(0.00730873 0.0430284 0)
(0.0285863 0.078547 0)
(0.0504828 0.0922738 0)
(0.0704032 0.0942504 0)
(0.0880229 0.0867856 0)
(0.10282 0.0735061 0)
(0.112371 0.0589482 0)
(0.121077 0.0444868 0)
(0.123275 0.031855 0)
(0.127229 0.0198822 0)
(0.12391 0.0100815 0)
(0.123863 -0.000442322 0)
(0.115238 -0.0092931 0)
(0.111213 -0.0206731 0)
(0.0959603 -0.0302383 0)
(0.0869663 -0.0454406 0)
(0.0586596 -0.0576682 0)
(0.0528716 -0.0912897 0)
(0.0013394 -0.154846 0)
(0.0358543 -0.249335 0)
(-0.00146652 0.04437 0)
(0.0157112 0.0675286 0)
(0.0405284 0.076969 0)
(0.0648067 0.0778908 0)
(0.0866815 0.0724985 0)
(0.108168 0.0624251 0)
(0.122314 0.0518965 0)
(0.136242 0.0409307 0)
(0.141357 0.0324139 0)
(0.147923 0.0227152 0)
(0.146269 0.0158732 0)
(0.146706 0.00711393 0)
(0.138896 0.00145239 0)
(0.133762 -0.00749148 0)
(0.118168 -0.013375 0)
(0.107739 -0.0253422 0)
(0.0791471 -0.0362715 0)
(0.0724407 -0.070017 0)
(0.014972 -0.130215 0)
(0.0515899 -0.218069 0)
(-0.00857957 0.010787 0)
(-0.00605736 0.0172974 0)
(0.0243127 0.0284308 0)
(0.0562717 0.0336517 0)
(0.0828138 0.034773 0)
(0.10959 0.0311623 0)
(0.12827 0.0275266 0)
(0.146415 0.021139 0)
(0.156695 0.0172131 0)
(0.166355 0.0115987 0)
(0.169721 0.00895217 0)
(0.172495 0.00380978 0)
(0.170153 0.0017141 0)
(0.167161 -0.00353677 0)
(0.15777 -0.0060144 0)
(0.150715 -0.0136336 0)
(0.130929 -0.020318 0)
(0.122276 -0.0462044 0)
(0.0625902 -0.0887823 0)
(0.0880308 -0.159574 0)
(0.0471192 0.0977076 0)
(0.0531531 0.0573075 0)
(0.0871327 0.0358581 0)
(0.117046 0.0272675 0)
(0.142106 0.0238111 0)
(0.168883 0.0205448 0)
(0.191083 0.0185163 0)
(0.212399 0.0157946 0)
(0.22843 0.014351 0)
(0.242832 0.0121269 0)
(0.252594 0.0112308 0)
(0.261013 0.00919327 0)
(0.265689 0.00856878 0)
(0.268838 0.00618151 0)
(0.268028 0.00501012 0)
(0.264359 0.00252135 0)
(0.254179 0.00109065 0)
(0.237162 -0.00825942 0)
(0.180783 -0.0205294 0)
(0.168691 -0.116219 0)
)
;

boundaryField
{
    movingWall
    {
        type            fixedValue;
        value           uniform (1 0 0);
    }
    fixedWalls
    {
        type            noSlip;
    }
    frontAndBack
    {
        type            empty;
    }
}


// ************************************************************************* //
