/*--------------------------------*- C++ -*----------------------------------*\
| =========                 |                                                 |
| \\      /  F ield         | OpenFOAM: The Open Source CFD Toolbox           |
|  \\    /   O peration     | Version:  4.1                                   |
|   \\  /    A nd           | Web:      www.OpenFOAM.org                      |
|    \\/     M anipulation  |                                                 |
\*---------------------------------------------------------------------------*/
FoamFile
{
    version     2.0;
    format      ascii;
    class       volScalarField;
    location    "10";
    object      epsilon;
}
// * * * * * * * * * * * * * * * * * * * * * * * * * * * * * * * * * * * * * //

dimensions      [0 2 -3 0 0 0 0];

internalField   nonuniform List<scalar> 
400
(
0.000381062
0.00123188
0.00367793
0.00720458
0.0103025
0.0124146
0.0136194
0.0141576
0.0143089
0.0140576
0.0133918
0.0125678
0.0115217
0.0105576
0.00960596
0.00877393
0.00807695
0.00739102
0.00578845
0.00443572
0.000881004
0.00213707
0.00432191
0.00574711
0.00612001
0.00561997
0.00482155
0.00401913
0.00334096
0.00285234
0.00261397
0.00254521
0.00277662
0.00312722
0.00371819
0.00463612
0.0060601
0.0079174
0.0099349
0.0107158
0.00202917
0.00301265
0.00372574
0.0037057
0.00282419
0.00214427
0.00157807
0.00125926
0.00108505
0.00100974
0.000990677
0.00104191
0.00119428
0.00143771
0.00192128
0.00275605
0.00424927
0.00687365
0.0115112
0.0170114
0.00296874
0.00289675
0.00291326
0.00218892
0.00136336
0.000961464
0.000679355
0.000546583
0.000462121
0.000422367
0.000407617
0.000409685
0.000472418
0.000583087
0.000831356
0.00135905
0.0025537
0.00524607
0.0115847
0.021429
0.00363508
0.00261671
0.00219341
0.00127297
0.000740892
0.000492502
0.000337208
0.0002627
0.000212344
0.000188917
0.000179435
0.000178826
0.000208928
0.000265556
0.000397407
0.0007187
0.00160756
0.00395252
0.0107246
0.0248806
0.0042981
0.00228486
0.0016058
0.000797716
0.000442756
0.000277454
0.00018246
0.000136132
0.000106635
9.32192e-05
8.83565e-05
8.94529e-05
0.00010709
0.000139877
0.000213527
0.0004013
0.00102817
0.00309475
0.0100355
0.0275597
0.00499933
0.00197652
0.00120906
0.00055386
0.000291946
0.000171923
0.000109578
7.86973e-05
6.0812e-05
5.27285e-05
4.99382e-05
5.14459e-05
6.28899e-05
8.45006e-05
0.000130591
0.000240428
0.000652149
0.00235809
0.00927527
0.0298087
0.00582701
0.0017542
0.000941613
0.000415216
0.000211601
0.000119465
7.41505e-05
5.17719e-05
3.99215e-05
3.45873e-05
3.28269e-05
3.42897e-05
4.23825e-05
5.81571e-05
9.14907e-05
0.000162251
0.000452525
0.00189239
0.0087041
0.0316927
0.00661056
0.0015894
0.000783817
0.000346074
0.000172984
9.42783e-05
5.70418e-05
3.91338e-05
3.03107e-05
2.64187e-05
2.52095e-05
2.66076e-05
3.26789e-05
4.50048e-05
7.0847e-05
0.000121267
0.000312852
0.00148192
0.00823374
0.03343
0.00755671
0.0015273
0.000680652
0.00030152
0.0001505
8.17417e-05
4.93053e-05
3.40445e-05
2.64541e-05
2.31142e-05
2.21604e-05
2.35627e-05
2.83334e-05
3.86673e-05
5.98071e-05
0.000102428
0.00024731
0.00127108
0.00791341
0.0350649
0.0082566
0.00161137
0.000640265
0.000292045
0.000150516
8.20718e-05
4.95266e-05
3.42884e-05
2.66346e-05
2.31084e-05
2.17826e-05
2.2823e-05
2.68668e-05
3.60631e-05
5.45718e-05
9.38127e-05
0.000216197
0.00113651
0.00773166
0.0367799
0.00890649
0.00186363
0.000658529
0.00029982
0.000156257
8.61925e-05
5.22736e-05
3.63329e-05
2.83064e-05
2.45129e-05
2.33497e-05
2.43687e-05
2.76552e-05
3.55437e-05
5.296e-05
9.10791e-05
0.000209149
0.00109229
0.00765405
0.0386643
0.00904839
0.00230222
0.000729916
0.000325031
0.000171391
9.64314e-05
5.92129e-05
4.14016e-05
3.24718e-05
2.82831e-05
2.72558e-05
2.84183e-05
3.17949e-05
3.97263e-05
5.61636e-05
9.3936e-05
0.000212897
0.00111281
0.00784055
0.0409488
0.0088836
0.00287342
0.000907464
0.00038443
0.000202062
0.00011712
7.3742e-05
5.20971e-05
4.11591e-05
3.61196e-05
3.47455e-05
3.60249e-05
3.96102e-05
4.80491e-05
6.53606e-05
0.000109032
0.000248989
0.00127948
0.00903418
0.0438997
0.00828694
0.00338923
0.00117104
0.00049986
0.000259693
0.000151665
9.7067e-05
6.94219e-05
5.49837e-05
4.87305e-05
4.79268e-05
4.96029e-05
5.3905e-05
6.37887e-05
8.44389e-05
0.000141765
0.000324681
0.00158997
0.0105621
0.0481793
0.00721945
0.0037222
0.00164546
0.000764907
0.000389369
0.000224767
0.000144801
0.000104298
8.24769e-05
7.19823e-05
6.98123e-05
7.16855e-05
7.71109e-05
9.1082e-05
0.000123783
0.00022099
0.000512297
0.0022986
0.0134506
0.0542663
0.00517853
0.00351671
0.00193234
0.00105748
0.00061802
0.000384196
0.00025671
0.000188322
0.000149224
0.000129161
0.000122172
0.000124692
0.000136186
0.000173656
0.000259325
0.000492107
0.0010916
0.004054
0.0186825
0.0634887
0.00379745
0.00302679
0.00231296
0.0016363
0.00117393
0.000875153
0.000674968
0.000571568
0.000504918
0.000498447
0.000507536
0.000547888
0.000610423
0.000801224
0.00113311
0.00196266
0.00367192
0.00975936
0.030709
0.0788682
0.00449951
0.00612268
0.00750092
0.00765309
0.0074201
0.00729684
0.00718076
0.00730199
0.00751304
0.00796456
0.00833965
0.00914166
0.00983953
0.010987
0.0124602
0.016771
0.02275
0.0375853
0.070279
0.110116
0.0455322
0.0896361
0.12132
0.133274
0.13472
0.134527
0.133596
0.133728
0.133918
0.13489
0.135786
0.138193
0.139917
0.143459
0.147427
0.150865
0.154906
0.159921
0.176421
0.152068
)
;

boundaryField
{
    movingWall
    {
        Cmu             0.09;
        kappa           0.41;
        E               9.8;
        type            epsilonWallFunction;
        value           nonuniform List<scalar> 
20
(
0.0455322
0.0896361
0.12132
0.133274
0.13472
0.134527
0.133596
0.133728
0.133918
0.13489
0.135786
0.138193
0.139917
0.143459
0.147427
0.150865
0.154906
0.159921
0.176421
0.152068
)
;
    }
    fixedWalls
    {
        Cmu             0.09;
        kappa           0.41;
        E               9.8;
        type            epsilonWallFunction;
        value           nonuniform List<scalar> 
60
(
0.000381062
0.000881004
0.00202917
0.00296874
0.00363508
0.0042981
0.00499933
0.00582701
0.00661056
0.00755671
0.0082566
0.00890649
0.00904839
0.0088836
0.00828694
0.00721945
0.00517853
0.00379745
0.00449951
0.0455322
0.00443572
0.0107158
0.0170114
0.021429
0.0248806
0.0275597
0.0298087
0.0316927
0.03343
0.0350649
0.0367799
0.0386643
0.0409488
0.0438997
0.0481793
0.0542663
0.0634887
0.0788682
0.110116
0.152068
0.000381062
0.00123188
0.00367793
0.00720458
0.0103025
0.0124146
0.0136194
0.0141576
0.0143089
0.0140576
0.0133918
0.0125678
0.0115217
0.0105576
0.00960596
0.00877393
0.00807695
0.00739102
0.00578845
0.00443572
)
;
    }
    frontAndBack
    {
        type            empty;
    }
}


// ************************************************************************* //
