/*--------------------------------*- C++ -*----------------------------------*\
| =========                 |                                                 |
| \\      /  F ield         | OpenFOAM: The Open Source CFD Toolbox           |
|  \\    /   O peration     | Version:  4.1                                   |
|   \\  /    A nd           | Web:      www.OpenFOAM.org                      |
|    \\/     M anipulation  |                                                 |
\*---------------------------------------------------------------------------*/
FoamFile
{
    version     2.0;
    format      ascii;
    class       volScalarField;
    location    "10";
    object      k;
}
// * * * * * * * * * * * * * * * * * * * * * * * * * * * * * * * * * * * * * //

dimensions      [0 2 -2 0 0 0 0];

internalField   nonuniform List<scalar> 
400
(
0.000178124
0.000389437
0.000807468
0.00126413
0.00160454
0.00181696
0.00193269
0.00198328
0.00199738
0.00197391
0.00191108
0.00183185
0.00172873
0.00163089
0.00153135
0.0014416
0.00136421
0.00128584
0.0010925
0.000914846
0.000311434
0.000666415
0.00102343
0.00119145
0.00123873
0.0011201
0.00101913
0.000911259
0.000843456
0.000803605
0.000788632
0.000798175
0.000863107
0.000940071
0.00106564
0.00121959
0.00140977
0.00160967
0.00173121
0.00164712
0.000543159
0.000885295
0.000978696
0.000961388
0.000736799
0.000627083
0.000522846
0.000468428
0.000431397
0.000413643
0.000407035
0.000407221
0.000440674
0.000489684
0.000592716
0.000757814
0.00101731
0.00140263
0.00191312
0.00224149
0.000700002
0.00088129
0.000868149
0.000664724
0.000474799
0.00038759
0.000313175
0.000277027
0.00024246
0.000225445
0.000215545
0.000212354
0.000219892
0.000245477
0.000300771
0.000420562
0.000666469
0.00110343
0.0018851
0.00261444
0.000801174
0.000860405
0.000723985
0.000463702
0.000329502
0.000262756
0.000209945
0.000184762
0.000164307
0.000154914
0.000149781
0.000148083
0.000149919
0.000161204
0.000187276
0.000258319
0.000453086
0.000874183
0.0017493
0.00288815
0.00089585
0.000812866
0.000584993
0.000348455
0.000245432
0.000193081
0.000157903
0.000141871
0.000132101
0.000127577
0.000125411
0.000124708
0.000126905
0.000133301
0.00014598
0.000180974
0.000318511
0.00071346
0.00166014
0.00309192
0.000990808
0.000748299
0.000486868
0.000281657
0.000196252
0.000154181
0.000130087
0.000118981
0.000112719
0.000109447
0.000108187
0.000109611
0.000113847
0.000120782
0.000129655
0.000145273
0.000233878
0.000576174
0.00155979
0.00325791
0.00109735
0.000678282
0.000416616
0.000238805
0.000166758
0.000131461
0.00011175
0.000101998
9.59107e-05
9.23241e-05
9.08897e-05
9.26288e-05
9.80018e-05
0.000107291
0.000120232
0.00012839
0.000187068
0.000487243
0.00149785
0.00339376
0.00119363
0.000632068
0.000375348
0.000216697
0.000150046
0.000116974
9.88813e-05
8.90185e-05
8.27002e-05
7.91909e-05
7.78247e-05
7.97203e-05
8.51397e-05
9.39068e-05
0.000107968
0.000116783
0.000153175
0.00040595
0.00144325
0.00351666
0.00130496
0.00059129
0.000346805
0.000200824
0.000140997
0.000109919
9.12488e-05
8.03688e-05
7.40862e-05
7.10083e-05
7.00532e-05
7.1797e-05
7.66623e-05
8.47949e-05
9.83358e-05
0.000109269
0.000136497
0.000362358
0.00141561
0.00363038
0.00138434
0.000594735
0.000336355
0.000199437
0.000138819
0.000104567
8.48158e-05
7.42857e-05
6.88544e-05
6.63447e-05
6.59164e-05
6.7161e-05
7.06585e-05
7.75127e-05
8.96234e-05
0.00010151
0.000125387
0.000327013
0.00139988
0.00374779
0.00145605
0.000616246
0.000340551
0.000203091
0.000140889
0.0001051
8.31783e-05
7.12147e-05
6.57259e-05
6.38409e-05
6.37024e-05
6.46958e-05
6.73341e-05
7.3206e-05
8.45251e-05
9.71523e-05
0.00012155
0.00031258
0.00139424
0.00387471
0.00147148
0.000660847
0.000355677
0.000213273
0.000147022
0.000108275
8.45971e-05
7.16825e-05
6.53464e-05
6.33341e-05
6.3091e-05
6.38493e-05
6.59839e-05
7.13404e-05
8.19084e-05
9.49291e-05
0.000120058
0.0003086
0.00141688
0.00402585
0.00145356
0.000739791
0.000393599
0.000237058
0.000160262
0.000116182
8.9353e-05
7.44179e-05
6.65988e-05
6.40999e-05
6.3721e-05
6.43567e-05
6.61022e-05
7.11505e-05
8.11893e-05
9.44881e-05
0.000122088
0.000323304
0.00153513
0.004217
0.00138773
0.000810875
0.000442591
0.000270664
0.00018466
0.000133081
0.0001007
8.24248e-05
7.17776e-05
6.79196e-05
6.75059e-05
6.84178e-05
7.07501e-05
7.7216e-05
8.63946e-05
0.00010117
0.000134799
0.000367292
0.00170068
0.00448678
0.00126585
0.000886066
0.000541416
0.000339886
0.000227247
0.000163976
0.00012407
0.000100666
8.58173e-05
7.86954e-05
7.73575e-05
7.83246e-05
8.08413e-05
8.74744e-05
9.58028e-05
0.000113908
0.000160843
0.000457765
0.00199529
0.00485714
0.00101436
0.000866921
0.000611084
0.000433309
0.000313601
0.000228324
0.000174103
0.000141145
0.000118932
0.00010648
9.9309e-05
9.92411e-05
0.000101117
0.00010729
0.000120355
0.00015362
0.000242013
0.000672274
0.00248013
0.00539292
0.000824868
0.000808358
0.000703606
0.000559071
0.000447525
0.000360302
0.000289043
0.000243168
0.000208864
0.000191053
0.000175821
0.000176266
0.00018022
0.000199504
0.000240788
0.000344908
0.000562144
0.00126477
0.00342874
0.006232
0.000923612
0.00105266
0.00115474
0.00112288
0.00104656
0.00100183
0.000946135
0.000943289
0.000950294
0.000978905
0.00101654
0.00110386
0.00117791
0.00132703
0.00147874
0.00186513
0.00235713
0.00349477
0.00592569
0.00778499
0.0043209
0.00678708
0.00830447
0.00884139
0.00890516
0.00889665
0.00885554
0.00886139
0.00886979
0.00891262
0.00895206
0.00905754
0.00913272
0.00928623
0.0094567
0.00960313
0.0097739
0.00998375
0.0106592
0.00965422
)
;

boundaryField
{
    movingWall
    {
        type            kqRWallFunction;
        value           nonuniform List<scalar> 
20
(
0.0043209
0.00678708
0.00830447
0.00884139
0.00890516
0.00889665
0.00885554
0.00886139
0.00886979
0.00891262
0.00895206
0.00905754
0.00913272
0.00928623
0.0094567
0.00960313
0.0097739
0.00998375
0.0106592
0.00965422
)
;
    }
    fixedWalls
    {
        type            kqRWallFunction;
        value           nonuniform List<scalar> 
60
(
0.000178124
0.000311434
0.000543159
0.000700002
0.000801174
0.00089585
0.000990808
0.00109735
0.00119363
0.00130496
0.00138434
0.00145605
0.00147148
0.00145356
0.00138773
0.00126585
0.00101436
0.000824868
0.000923612
0.0043209
0.000914846
0.00164712
0.00224149
0.00261444
0.00288815
0.00309192
0.00325791
0.00339376
0.00351666
0.00363038
0.00374779
0.00387471
0.00402585
0.004217
0.00448678
0.00485714
0.00539292
0.006232
0.00778499
0.00965422
0.000178124
0.000389437
0.000807468
0.00126413
0.00160454
0.00181696
0.00193269
0.00198328
0.00199738
0.00197391
0.00191108
0.00183185
0.00172873
0.00163089
0.00153135
0.0014416
0.00136421
0.00128584
0.0010925
0.000914846
)
;
    }
    frontAndBack
    {
        type            empty;
    }
}


// ************************************************************************* //
