/*--------------------------------*- C++ -*----------------------------------*\
| =========                 |                                                 |
| \\      /  F ield         | OpenFOAM: The Open Source CFD Toolbox           |
|  \\    /   O peration     | Version:  4.1                                   |
|   \\  /    A nd           | Web:      www.OpenFOAM.org                      |
|    \\/     M anipulation  |                                                 |
\*---------------------------------------------------------------------------*/
FoamFile
{
    version     2.0;
    format      ascii;
    class       volScalarField;
    location    "10";
    object      nut;
}
// * * * * * * * * * * * * * * * * * * * * * * * * * * * * * * * * * * * * * //

dimensions      [0 2 -1 0 0 0 0];

internalField   nonuniform List<scalar> 
400
(
7.49362e-06
1.10803e-05
1.59547e-05
1.99627e-05
2.24905e-05
2.39332e-05
2.46836e-05
2.50046e-05
2.50933e-05
2.49453e-05
2.45449e-05
2.40306e-05
2.33442e-05
2.26739e-05
2.19712e-05
2.13176e-05
2.07376e-05
2.0133e-05
1.85577e-05
1.69814e-05
9.90827e-06
1.87031e-05
2.18113e-05
2.22302e-05
2.25655e-05
2.00921e-05
1.9387e-05
1.85949e-05
1.91645e-05
2.03763e-05
2.14136e-05
2.25276e-05
2.41466e-05
2.54335e-05
2.74873e-05
2.88747e-05
2.9516e-05
2.94532e-05
2.71504e-05
2.27859e-05
1.30851e-05
2.34137e-05
2.3138e-05
2.24476e-05
1.73e-05
1.65049e-05
1.55906e-05
1.56825e-05
1.54365e-05
1.52505e-05
1.50513e-05
1.43243e-05
1.46342e-05
1.50107e-05
1.64568e-05
1.87534e-05
2.19197e-05
2.57598e-05
2.86159e-05
2.65813e-05
1.48549e-05
2.41306e-05
2.32837e-05
1.81675e-05
1.48817e-05
1.40623e-05
1.29933e-05
1.26366e-05
1.1449e-05
1.08302e-05
1.02581e-05
9.90632e-06
9.21158e-06
9.30103e-06
9.79329e-06
1.1713e-05
1.56543e-05
2.08879e-05
2.76074e-05
2.87078e-05
1.58921e-05
2.5462e-05
2.15071e-05
1.52021e-05
1.31888e-05
1.26166e-05
1.1764e-05
1.16952e-05
1.14424e-05
1.14328e-05
1.12525e-05
1.10362e-05
9.68185e-06
8.8072e-06
7.94272e-06
8.35617e-06
1.14931e-05
1.7401e-05
2.568e-05
3.01731e-05
1.68049e-05
2.60268e-05
1.91802e-05
1.3699e-05
1.22444e-05
1.20929e-05
1.22987e-05
1.33066e-05
1.47283e-05
1.57137e-05
1.60204e-05
1.56473e-05
1.35348e-05
1.1433e-05
8.98201e-06
7.34526e-06
8.88027e-06
1.48032e-05
2.47169e-05
3.12193e-05
1.7673e-05
2.54971e-05
1.76447e-05
1.28909e-05
1.18732e-05
1.24443e-05
1.3899e-05
1.61897e-05
1.8804e-05
2.04459e-05
2.10939e-05
2.10185e-05
1.85483e-05
1.55377e-05
1.15853e-05
7.89997e-06
7.54872e-06
1.26704e-05
2.36073e-05
3.20463e-05
1.85988e-05
2.36039e-05
1.65899e-05
1.2361e-05
1.18277e-05
1.30195e-05
1.51573e-05
1.80857e-05
2.07382e-05
2.21797e-05
2.26486e-05
2.25202e-05
2.0395e-05
1.78141e-05
1.42202e-05
9.1437e-06
6.9598e-06
1.12908e-05
2.31984e-05
3.27074e-05
1.93975e-05
2.26223e-05
1.61769e-05
1.22117e-05
1.17135e-05
1.30621e-05
1.54269e-05
1.82243e-05
2.03076e-05
2.1364e-05
2.16229e-05
2.14969e-05
1.99636e-05
1.76351e-05
1.48085e-05
1.01219e-05
6.74961e-06
1.00084e-05
2.27681e-05
3.32941e-05
2.02817e-05
2.06024e-05
1.59033e-05
1.20381e-05
1.18885e-05
1.33029e-05
1.51986e-05
1.70754e-05
1.86734e-05
1.96328e-05
1.99306e-05
1.96893e-05
1.86685e-05
1.67355e-05
1.45517e-05
1.04909e-05
6.7803e-06
9.29707e-06
2.27911e-05
3.38279e-05
2.08893e-05
1.97557e-05
1.5903e-05
1.22576e-05
1.15228e-05
1.19905e-05
1.30725e-05
1.44846e-05
1.60199e-05
1.7143e-05
1.79523e-05
1.77871e-05
1.67246e-05
1.49943e-05
1.3247e-05
9.88547e-06
6.54479e-06
8.46837e-06
2.28113e-05
3.43702e-05
2.14235e-05
1.83396e-05
1.58501e-05
1.23813e-05
1.14329e-05
1.15339e-05
1.19119e-05
1.25626e-05
1.37351e-05
1.4964e-05
1.56413e-05
1.54584e-05
1.47549e-05
1.35698e-05
1.21413e-05
9.32675e-06
6.35767e-06
8.05053e-06
2.28573e-05
3.4947e-05
2.15366e-05
1.70725e-05
1.55984e-05
1.25948e-05
1.13506e-05
1.09416e-05
1.08777e-05
1.117e-05
1.18353e-05
1.27641e-05
1.31437e-05
1.29109e-05
1.23243e-05
1.15301e-05
1.07509e-05
8.63394e-06
6.09334e-06
7.70216e-06
2.30443e-05
3.56218e-05
2.14051e-05
1.7142e-05
1.53646e-05
1.31563e-05
1.14398e-05
1.03726e-05
9.7442e-06
9.56717e-06
9.6986e-06
1.0238e-05
1.05174e-05
1.03473e-05
9.92812e-06
9.4823e-06
9.07661e-06
7.36959e-06
5.3878e-06
7.3524e-06
2.3477e-05
3.64577e-05
2.09149e-05
1.74602e-05
1.50548e-05
1.31903e-05
1.18175e-05
1.05097e-05
9.40215e-06
8.80769e-06
8.43309e-06
8.51986e-06
8.55751e-06
8.49325e-06
8.35732e-06
8.41227e-06
7.95561e-06
6.49794e-06
5.03683e-06
7.6362e-06
2.46454e-05
3.76055e-05
1.99757e-05
1.89834e-05
1.60331e-05
1.35926e-05
1.19365e-05
1.07663e-05
9.5676e-06
8.74439e-06
8.03638e-06
7.74311e-06
7.71463e-06
7.70208e-06
7.62768e-06
7.56087e-06
6.67323e-06
5.28423e-06
4.54493e-06
8.20472e-06
2.66386e-05
3.91267e-05
1.78823e-05
1.92338e-05
1.73924e-05
1.59796e-05
1.43217e-05
1.22122e-05
1.06271e-05
9.5208e-06
8.53098e-06
7.90033e-06
7.2652e-06
7.10863e-06
6.75711e-06
5.96587e-06
5.02718e-06
4.31597e-06
4.82896e-06
1.00335e-05
2.96317e-05
4.12282e-05
1.61257e-05
1.94298e-05
1.92634e-05
1.71915e-05
1.53545e-05
1.33504e-05
1.114e-05
9.31081e-06
7.77588e-06
6.5907e-06
5.48175e-06
5.10375e-06
4.78868e-06
4.47086e-06
4.6051e-06
5.4551e-06
7.74543e-06
1.47517e-05
3.44546e-05
4.43196e-05
1.7063e-05
1.62883e-05
1.59991e-05
1.48277e-05
1.32849e-05
1.23794e-05
1.12196e-05
1.09671e-05
1.08179e-05
1.08283e-05
1.11517e-05
1.19962e-05
1.2691e-05
1.44254e-05
1.57943e-05
1.86682e-05
2.19801e-05
2.92457e-05
4.49671e-05
4.95347e-05
3.6904e-05
4.62514e-05
5.11604e-05
5.27883e-05
5.29778e-05
5.29526e-05
5.283e-05
5.28475e-05
5.28724e-05
5.29998e-05
5.31169e-05
5.34289e-05
5.36502e-05
5.40995e-05
5.45939e-05
5.5015e-05
5.55022e-05
5.6095e-05
5.79618e-05
5.51619e-05
)
;

boundaryField
{
    movingWall
    {
        type            nutkWallFunction;
        Cmu             0.09;
        kappa           0.41;
        E               9.8;
        value           nonuniform List<scalar> 
20
(
0
0
6.44435e-07
9.12035e-07
9.43186e-07
9.39036e-07
9.1896e-07
9.21818e-07
9.25926e-07
9.46825e-07
9.6602e-07
1.01711e-06
1.05332e-06
1.12672e-06
1.20742e-06
1.27608e-06
1.35538e-06
1.45175e-06
1.75426e-06
1.29989e-06
)
;
    }
    fixedWalls
    {
        type            nutkWallFunction;
        Cmu             0.09;
        kappa           0.41;
        E               9.8;
        value           nonuniform List<scalar> 
60
(
0
0
0
0
0
0
0
0
0
0
0
0
0
0
0
0
0
0
0
0
0
0
0
0
0
0
0
0
0
0
0
0
0
0
0
0
0
0
3.7586e-07
1.29989e-06
0
0
0
0
0
0
0
0
0
0
0
0
0
0
0
0
0
0
0
0
)
;
    }
    frontAndBack
    {
        type            empty;
    }
}


// ************************************************************************* //
