/*--------------------------------*- C++ -*----------------------------------*\
| =========                 |                                                 |
| \\      /  F ield         | OpenFOAM: The Open Source CFD Toolbox           |
|  \\    /   O peration     | Version:  4.1                                   |
|   \\  /    A nd           | Web:      www.OpenFOAM.org                      |
|    \\/     M anipulation  |                                                 |
\*---------------------------------------------------------------------------*/
FoamFile
{
    version     2.0;
    format      ascii;
    class       volScalarField;
    location    "10";
    object      p;
}
// * * * * * * * * * * * * * * * * * * * * * * * * * * * * * * * * * * * * * //

dimensions      [0 2 -2 0 0 0 0];

internalField   nonuniform List<scalar> 
400
(
4.82255e-08
-0.000120624
-0.000318437
-0.0010208
-0.00246687
-0.00456082
-0.00691556
-0.00912973
-0.0109157
-0.0121316
-0.0126536
-0.0123709
-0.0112083
-0.00910798
-0.00604606
-0.00215496
0.00219665
0.00617154
0.00871563
0.00945291
0.000182864
-2.579e-05
-0.000490886
-0.00157542
-0.00336141
-0.0056281
-0.00799069
-0.010129
-0.0118636
-0.0130317
-0.0135343
-0.0133154
-0.0123225
-0.0104584
-0.00770075
-0.00409824
7.864e-05
0.00418914
0.00710744
0.00828726
0.000121376
-0.00035425
-0.00131636
-0.00295599
-0.00519339
-0.00765942
-0.0100063
-0.0120624
-0.0136963
-0.0147395
-0.0151665
-0.0149536
-0.0140748
-0.0124891
-0.0101585
-0.00707864
-0.00333462
0.000724396
0.00403264
0.00567996
-0.000589281
-0.00135137
-0.00283298
-0.0050312
-0.0076247
-0.0101826
-0.0124433
-0.0142638
-0.0155681
-0.0163733
-0.0166823
-0.0164768
-0.0157369
-0.0144415
-0.0125668
-0.0100892
-0.00699216
-0.00332313
6.3377e-05
0.00188923
-0.00207775
-0.0030653
-0.00491419
-0.00744942
-0.0101371
-0.0125513
-0.0145314
-0.0160465
-0.0171045
-0.017739
-0.0179596
-0.0177656
-0.0171503
-0.0161019
-0.014607
-0.012651
-0.0102112
-0.00717837
-0.00404455
-0.00225887
-0.00418894
-0.00524677
-0.0072262
-0.0098068
-0.0123504
-0.0144937
-0.0161769
-0.0174373
-0.0183199
-0.0188484
-0.0190295
-0.0188666
-0.0183574
-0.0175002
-0.0162914
-0.0147298
-0.0128401
-0.0104585
-0.00786165
-0.00616983
-0.00646201
-0.00749593
-0.0094217
-0.0118597
-0.0141462
-0.0160055
-0.0174374
-0.018516
-0.01928
-0.0197453
-0.0199152
-0.0197894
-0.0193672
-0.0186546
-0.0176602
-0.0163774
-0.0148917
-0.0130519
-0.0110248
-0.00951112
-0.00849668
-0.00944336
-0.0112307
-0.0134719
-0.0155004
-0.0171204
-0.0183687
-0.019322
-0.0200052
-0.0204285
-0.0205934
-0.0205001
-0.0201483
-0.0195434
-0.0187089
-0.0176175
-0.0164177
-0.0149669
-0.013455
-0.0121282
-0.0100049
-0.0108853
-0.0125216
-0.0145894
-0.0164187
-0.0178707
-0.0189993
-0.019871
-0.0205008
-0.0208958
-0.0210572
-0.0209862
-0.0206854
-0.020152
-0.0194312
-0.0184527
-0.0174635
-0.0162485
-0.0151127
-0.0139811
-0.0109013
-0.0116979
-0.013229
-0.0151868
-0.0168997
-0.0182649
-0.019334
-0.0201645
-0.0207665
-0.0211463
-0.0213058
-0.0212457
-0.0209753
-0.0204748
-0.0198276
-0.0188822
-0.0180533
-0.0168994
-0.0160941
-0.0150492
-0.0111335
-0.011889
-0.0133562
-0.0152598
-0.016945
-0.0183074
-0.0193769
-0.0202042
-0.0208029
-0.0211803
-0.0213401
-0.0212792
-0.0210169
-0.0205158
-0.0198905
-0.0189236
-0.0181758
-0.0169394
-0.0164507
-0.0153154
-0.0107201
-0.0114675
-0.0129114
-0.0148132
-0.0165565
-0.017989
-0.0191169
-0.0199826
-0.0206066
-0.020997
-0.021161
-0.0210911
-0.0208097
-0.0202849
-0.0196014
-0.018616
-0.0177604
-0.0164601
-0.0161857
-0.0147766
-0.00980298
-0.0105478
-0.0119772
-0.0138697
-0.0157394
-0.0173038
-0.0185465
-0.0194961
-0.0201779
-0.0205987
-0.0207717
-0.0206833
-0.0203585
-0.0197692
-0.0189742
-0.0179087
-0.0168443
-0.0154947
-0.0152453
-0.0135319
-0.0085483
-0.00924577
-0.010628
-0.0124817
-0.0144766
-0.0162207
-0.0176359
-0.0187236
-0.0195046
-0.0199805
-0.0201706
-0.0200582
-0.0196641
-0.0189663
-0.0180086
-0.0167703
-0.0154601
-0.0140174
-0.013694
-0.0117804
-0.00720456
-0.00776597
-0.00899051
-0.0107403
-0.0127844
-0.0147179
-0.0163595
-0.017646
-0.0185786
-0.019145
-0.0193655
-0.0192245
-0.0187353
-0.0178839
-0.0167083
-0.0152105
-0.0136382
-0.0120261
-0.0116092
-0.00957081
-0.00599087
-0.00625648
-0.00718408
-0.00871606
-0.0107047
-0.0127871
-0.014689
-0.0162281
-0.0173677
-0.0180705
-0.018343
-0.018176
-0.0175805
-0.0165491
-0.0151173
-0.0133137
-0.0114274
-0.00954423
-0.00896295
-0.00654916
-0.00516597
-0.00500769
-0.00545766
-0.00660694
-0.00841367
-0.0105454
-0.0126757
-0.0144906
-0.0158822
-0.016773
-0.0171522
-0.0170055
-0.0163321
-0.0151279
-0.0134332
-0.0112929
-0.00898289
-0.00660193
-0.00538516
-0.00117769
-0.00462977
-0.00398555
-0.00389787
-0.0045912
-0.00616013
-0.00828497
-0.010569
-0.0126015
-0.0142107
-0.0152923
-0.015802
-0.0157156
-0.0150385
-0.0137601
-0.0118778
-0.00940281
-0.00648893
-0.00312485
7.83204e-05
0.00928958
-0.00575687
-0.00377387
-0.00297049
-0.0032002
-0.00455106
-0.0066681
-0.00904426
-0.011256
-0.013034
-0.0142721
-0.0149007
-0.0149117
-0.0142578
-0.0129127
-0.0108269
-0.00791141
-0.00405212
0.00118002
0.0081656
0.0253043
-0.000918872
0.000750311
-0.000209283
-0.00155743
-0.00334106
-0.00562201
-0.00809159
-0.0104513
-0.0123557
-0.0136945
-0.0143588
-0.0143632
-0.0136396
-0.0122342
-0.00994565
-0.0066219
-0.00134506
0.00649837
0.0180382
0.0369407
)
;

boundaryField
{
    movingWall
    {
        type            zeroGradient;
    }
    fixedWalls
    {
        type            zeroGradient;
    }
    frontAndBack
    {
        type            empty;
    }
}


// ************************************************************************* //
