/*--------------------------------*- C++ -*----------------------------------*\
| =========                 |                                                 |
| \\      /  F ield         | OpenFOAM: The Open Source CFD Toolbox           |
|  \\    /   O peration     | Version:  4.1                                   |
|   \\  /    A nd           | Web:      www.OpenFOAM.org                      |
|    \\/     M anipulation  |                                                 |
\*---------------------------------------------------------------------------*/
FoamFile
{
    version     2.0;
    format      ascii;
    class       surfaceScalarField;
    location    "10";
    object      phi;
}
// * * * * * * * * * * * * * * * * * * * * * * * * * * * * * * * * * * * * * //

dimensions      [0 3 -1 0 0 0 0];

internalField   nonuniform List<scalar> 
760
(
-5.38603e-08
5.38556e-08
-6.10541e-07
5.56681e-07
-1.68825e-06
1.07771e-06
-3.10181e-06
1.41356e-06
-4.5736e-06
1.47179e-06
-5.94818e-06
1.37458e-06
-7.12416e-06
1.17598e-06
-8.066e-06
9.41837e-07
-8.74892e-06
6.82915e-07
-9.21419e-06
4.65275e-07
-9.4526e-06
2.38414e-07
-9.48228e-06
2.96738e-08
-9.27016e-06
-2.12123e-07
-8.8279e-06
-4.42251e-07
-8.06386e-06
-7.6404e-07
-6.94392e-06
-1.11995e-06
-5.39072e-06
-1.5532e-06
-3.46374e-06
-1.92698e-06
-1.47887e-06
-1.98486e-06
-1.47887e-06
-7.25386e-07
7.79241e-07
-1.87101e-06
1.7023e-06
-3.29274e-06
2.49944e-06
-4.7371e-06
2.85792e-06
-6.07557e-06
2.81026e-06
-7.21372e-06
2.51273e-06
-8.12285e-06
2.08511e-06
-8.80689e-06
1.62588e-06
-9.31218e-06
1.1882e-06
-9.61603e-06
7.69124e-07
-9.72167e-06
3.44052e-07
-9.6166e-06
-7.5396e-08
-9.364e-06
-4.64722e-07
-8.89143e-06
-9.14812e-07
-8.19286e-06
-1.46261e-06
-7.18461e-06
-2.1282e-06
-5.81499e-06
-2.92282e-06
-4.01577e-06
-3.72621e-06
-1.93506e-06
-4.06557e-06
-3.41393e-06
-1.19741e-06
1.97665e-06
-2.60972e-06
3.11461e-06
-4.01396e-06
3.90368e-06
-5.27723e-06
4.1212e-06
-6.33591e-06
3.86893e-06
-7.15204e-06
3.32886e-06
-7.74655e-06
2.67962e-06
-8.12202e-06
2.00135e-06
-8.33066e-06
1.39684e-06
-8.37874e-06
8.17203e-07
-8.33585e-06
3.01164e-07
-8.20336e-06
-2.07891e-07
-7.95816e-06
-7.09918e-07
-7.57992e-06
-1.29306e-06
-7.05696e-06
-1.98558e-06
-6.3235e-06
-2.86165e-06
-5.30821e-06
-3.93811e-06
-3.87628e-06
-5.15814e-06
-2.04002e-06
-5.90184e-06
-5.45395e-06
-1.37052e-06
3.34717e-06
-2.77778e-06
4.52187e-06
-4.00991e-06
5.13581e-06
-5.01277e-06
5.12406e-06
-5.73597e-06
4.59213e-06
-6.1845e-06
3.77739e-06
-6.41721e-06
2.91233e-06
-6.51729e-06
2.10142e-06
-6.54669e-06
1.42625e-06
-6.53764e-06
8.08148e-07
-6.47869e-06
2.42223e-07
-6.36312e-06
-3.2347e-07
-6.1646e-06
-9.08437e-07
-5.8864e-06
-1.57125e-06
-5.5132e-06
-2.35878e-06
-5.03327e-06
-3.34158e-06
-4.36964e-06
-4.60173e-06
-3.34327e-06
-6.18451e-06
-1.85704e-06
-7.38806e-06
-7.31099e-06
-1.27661e-06
4.62378e-06
-2.49271e-06
5.73797e-06
-3.4953e-06
6.13841e-06
-4.22067e-06
5.84943e-06
-4.64271e-06
5.01417e-06
-4.83835e-06
3.97303e-06
-4.92738e-06
3.00137e-06
-4.98609e-06
2.16013e-06
-5.0037e-06
1.44386e-06
-4.98761e-06
7.92052e-07
-4.9293e-06
1.8392e-07
-4.81891e-06
-4.33863e-07
-4.64825e-06
-1.0791e-06
-4.41795e-06
-1.80155e-06
-4.12683e-06
-2.6499e-06
-3.76981e-06
-3.69861e-06
-3.35047e-06
-5.02107e-06
-2.65803e-06
-6.87696e-06
-1.54911e-06
-8.49698e-06
-8.8601e-06
-1.0473e-06
5.67108e-06
-2.02664e-06
6.71732e-06
-2.78849e-06
6.90026e-06
-3.28679e-06
6.34772e-06
-3.53322e-06
5.2606e-06
-3.65007e-06
4.08988e-06
-3.72201e-06
3.07331e-06
-3.78055e-06
2.21867e-06
-3.81701e-06
1.48032e-06
-3.82417e-06
7.99207e-07
-3.78507e-06
1.44818e-07
-3.6967e-06
-5.22227e-07
-3.54847e-06
-1.22733e-06
-3.34016e-06
-2.00986e-06
-3.08307e-06
-2.90698e-06
-2.78229e-06
-3.99938e-06
-2.48753e-06
-5.31584e-06
-2.09354e-06
-7.27094e-06
-1.23988e-06
-9.35065e-06
-1.01e-05
-7.90588e-07
6.46166e-06
-1.49805e-06
7.42478e-06
-2.04117e-06
7.44337e-06
-2.38136e-06
6.68791e-06
-2.55075e-06
5.42999e-06
-2.64845e-06
4.18758e-06
-2.72495e-06
3.14981e-06
-2.79073e-06
2.28446e-06
-2.83464e-06
1.52424e-06
-2.84921e-06
8.13775e-07
-2.82671e-06
1.22314e-07
-2.76341e-06
-5.85525e-07
-2.65203e-06
-1.33871e-06
-2.48606e-06
-2.17583e-06
-2.27358e-06
-3.11946e-06
-2.0167e-06
-4.25626e-06
-1.76817e-06
-5.56436e-06
-1.52814e-06
-7.51097e-06
-9.90281e-07
-9.88851e-06
-1.10903e-05
-4.99925e-07
6.96159e-06
-9.84072e-07
7.90893e-06
-1.35355e-06
7.81285e-06
-1.58332e-06
6.91768e-06
-1.7114e-06
5.55807e-06
-1.79347e-06
4.26965e-06
-1.86415e-06
3.22048e-06
-1.92489e-06
2.3452e-06
-1.96526e-06
1.56462e-06
-1.98105e-06
8.29559e-07
-1.96887e-06
1.10136e-07
-1.92797e-06
-6.26425e-07
-1.85622e-06
-1.41046e-06
-1.74385e-06
-2.2882e-06
-1.59439e-06
-3.26892e-06
-1.40715e-06
-4.4435e-06
-1.23104e-06
-5.74047e-06
-1.09807e-06
-7.64394e-06
-7.54267e-07
-1.02323e-05
-1.18445e-05
-2.56915e-07
7.2185e-06
-5.0775e-07
8.15976e-06
-7.12868e-07
8.01797e-06
-8.57188e-07
7.062e-06
-9.49475e-07
5.65036e-06
-1.02181e-06
4.34199e-06
-1.08532e-06
3.28399e-06
-1.13717e-06
2.39705e-06
-1.17147e-06
1.59892e-06
-1.1887e-06
8.46788e-07
-1.18891e-06
1.10341e-07
-1.17119e-06
-6.4414e-07
-1.13842e-06
-1.44323e-06
-1.07829e-06
-2.34833e-06
-9.97237e-07
-3.34997e-06
-8.72588e-07
-4.56815e-06
-7.76048e-07
-5.83701e-06
-6.96368e-07
-7.72362e-06
-5.74024e-07
-1.03547e-05
-1.24186e-05
1.69089e-08
7.2016e-06
-7.34745e-08
8.25015e-06
-1.51099e-07
8.09559e-06
-2.09682e-07
7.12059e-06
-2.61915e-07
5.70259e-06
-3.17431e-07
4.3975e-06
-3.64574e-07
3.33113e-06
-3.99629e-07
2.4321e-06
-4.25283e-07
1.62457e-06
-4.44403e-07
8.65908e-07
-4.58937e-07
1.24875e-07
-4.6469e-07
-6.38386e-07
-4.68299e-07
-1.43962e-06
-4.62821e-07
-2.35381e-06
-4.49572e-07
-3.36322e-06
-4.08438e-07
-4.60929e-06
-4.03245e-07
-5.8422e-06
-4.0802e-07
-7.71884e-06
-4.17121e-07
-1.03456e-05
-1.28357e-05
2.37211e-07
6.96439e-06
3.76369e-07
8.11099e-06
4.61882e-07
8.01008e-06
4.50898e-07
7.13157e-06
4.19906e-07
5.73358e-06
3.8309e-07
4.43432e-06
3.52257e-07
3.36197e-06
3.27863e-07
2.4565e-06
3.04124e-07
1.64831e-06
2.79685e-07
8.90347e-07
2.50918e-07
1.53642e-07
2.17196e-07
-6.04665e-07
1.8256e-07
-1.40498e-06
1.26328e-07
-2.29758e-06
1.00764e-07
-3.33766e-06
2.47116e-09
-4.51099e-06
6.71016e-09
-5.84644e-06
-1.64276e-07
-7.54786e-06
-3.00144e-07
-1.02097e-05
-1.31358e-05
4.81071e-07
6.48331e-06
7.96477e-07
7.79558e-06
1.0274e-06
7.77916e-06
1.09702e-06
7.06196e-06
1.0909e-06
5.7397e-06
1.06999e-06
4.45522e-06
1.05649e-06
3.37547e-06
1.04767e-06
2.46532e-06
1.03326e-06
1.66272e-06
1.00999e-06
9.13616e-07
9.69272e-07
1.94363e-07
9.12733e-07
-5.48126e-07
8.30168e-07
-1.32242e-06
7.49032e-07
-2.21644e-06
6.14899e-07
-3.20352e-06
5.05655e-07
-4.40175e-06
3.13067e-07
-5.65385e-06
2.26195e-08
-7.25741e-06
-1.62059e-07
-1.0025e-05
-1.32979e-05
6.95005e-07
5.78831e-06
1.21505e-06
7.27554e-06
1.59891e-06
7.3953e-06
1.78831e-06
6.87255e-06
1.83987e-06
5.68813e-06
1.84259e-06
4.45251e-06
1.84289e-06
3.37517e-06
1.84368e-06
2.46453e-06
1.83043e-06
1.67596e-06
1.79879e-06
9.45254e-07
1.73757e-06
2.55586e-07
1.65182e-06
-4.62375e-07
1.52986e-06
-1.20045e-06
1.39448e-06
-2.08107e-06
1.19235e-06
-3.0014e-06
1.00021e-06
-4.20961e-06
6.72959e-07
-5.3266e-06
3.30577e-07
-6.91503e-06
2.24459e-08
-9.71688e-06
-1.32754e-05
8.8478e-07
4.90353e-06
1.58517e-06
6.57515e-06
2.11831e-06
6.86217e-06
2.46543e-06
6.52543e-06
2.61031e-06
5.54325e-06
2.66257e-06
4.40025e-06
2.68362e-06
3.35412e-06
2.69581e-06
2.45234e-06
2.68887e-06
1.68291e-06
2.65654e-06
9.77584e-07
2.5839e-06
3.2822e-07
2.47837e-06
-3.5684e-07
2.32041e-06
-1.04249e-06
2.12494e-06
-1.8856e-06
1.85245e-06
-2.72891e-06
1.53929e-06
-3.89645e-06
1.07784e-06
-4.86515e-06
6.13445e-07
-6.45064e-06
1.65425e-07
-9.26886e-06
-1.311e-05
9.9255e-07
3.91098e-06
1.89006e-06
5.67763e-06
2.61243e-06
6.1398e-06
3.15699e-06
5.98087e-06
3.4674e-06
5.23284e-06
3.63181e-06
4.23585e-06
3.70787e-06
3.27806e-06
3.74341e-06
2.41679e-06
3.74015e-06
1.68617e-06
3.70623e-06
1.0115e-06
3.61445e-06
4.19999e-07
3.47571e-06
-2.18098e-07
3.26488e-06
-8.31666e-07
2.99211e-06
-1.61283e-06
2.6176e-06
-2.35439e-06
2.14801e-06
-3.42686e-06
1.53895e-06
-4.2561e-06
9.16135e-07
-5.82782e-06
3.28236e-07
-8.68096e-06
-1.27818e-05
1.0265e-06
2.88447e-06
2.01843e-06
4.6857e-06
2.91558e-06
5.24266e-06
3.68198e-06
5.21447e-06
4.22486e-06
4.68996e-06
4.57513e-06
3.88558e-06
4.78197e-06
3.07122e-06
4.89628e-06
2.30248e-06
4.92947e-06
1.65299e-06
4.90724e-06
1.03373e-06
4.80648e-06
5.20757e-07
4.64235e-06
-5.39657e-08
4.38011e-06
-5.69425e-07
4.02294e-06
-1.25566e-06
3.52467e-06
-1.85613e-06
2.86738e-06
-2.76957e-06
2.05417e-06
-3.44288e-06
1.22957e-06
-5.00322e-06
5.00408e-07
-7.9518e-06
-1.22814e-05
8.32783e-07
2.05169e-06
1.96229e-06
3.55619e-06
3.05942e-06
4.14553e-06
4.0732e-06
4.20069e-06
4.8968e-06
3.86636e-06
5.50405e-06
3.27832e-06
5.91155e-06
2.66372e-06
6.17939e-06
2.03465e-06
6.30457e-06
1.5278e-06
6.33893e-06
9.99368e-07
6.25525e-06
6.04436e-07
6.06015e-06
1.41135e-07
5.72369e-06
-2.32964e-07
5.25226e-06
-7.84228e-07
4.5767e-06
-1.18056e-06
3.68877e-06
-1.88164e-06
2.6674e-06
-2.42151e-06
1.65019e-06
-3.98601e-06
7.02055e-07
-7.00366e-06
-1.15793e-05
3.04562e-07
1.74713e-06
1.38099e-06
2.47976e-06
2.63185e-06
2.89467e-06
3.89815e-06
2.93438e-06
5.01234e-06
2.75217e-06
5.91838e-06
2.37229e-06
6.57554e-06
2.00655e-06
7.04398e-06
1.5662e-06
7.31572e-06
1.25606e-06
7.43887e-06
8.76218e-07
7.39237e-06
6.5094e-07
7.23367e-06
2.99839e-07
6.90626e-06
9.44437e-08
6.38146e-06
-2.59435e-07
5.66423e-06
-4.63331e-07
4.74529e-06
-9.62703e-07
3.69951e-06
-1.37573e-06
2.60071e-06
-2.88721e-06
1.21578e-06
-5.61873e-06
-1.03635e-05
-4.8423e-07
2.23136e-06
4.90523e-07
1.50501e-06
2.01953e-06
1.36566e-06
3.5766e-06
1.37731e-06
4.94718e-06
1.38159e-06
6.08643e-06
1.23304e-06
6.98863e-06
1.10435e-06
7.6684e-06
8.86433e-07
8.16043e-06
7.64034e-07
8.46492e-06
5.71725e-07
8.63602e-06
4.79842e-07
8.64228e-06
2.93574e-07
8.51479e-06
2.21938e-07
8.21265e-06
4.27038e-08
7.79927e-06
-4.9949e-08
7.17801e-06
-3.41449e-07
6.42219e-06
-6.19911e-07
5.21136e-06
-1.67637e-06
2.86764e-06
-3.27502e-06
-7.49588e-06
2.23136e-06
3.73637e-06
5.10203e-06
6.47935e-06
7.86094e-06
9.09398e-06
1.01983e-05
1.10848e-05
1.18488e-05
1.24205e-05
1.29004e-05
1.31939e-05
1.34159e-05
1.34586e-05
1.34086e-05
1.30672e-05
1.24473e-05
1.07709e-05
7.49588e-06
)
;

boundaryField
{
    movingWall
    {
        type            calculated;
        value           uniform 0;
    }
    fixedWalls
    {
        type            calculated;
        value           uniform 0;
    }
    frontAndBack
    {
        type            empty;
        value           nonuniform 0();
    }
}


// ************************************************************************* //
