/*--------------------------------*- C++ -*----------------------------------*\
| =========                 |                                                 |
| \\      /  F ield         | OpenFOAM: The Open Source CFD Toolbox           |
|  \\    /   O peration     | Version:  4.1                                   |
|   \\  /    A nd           | Web:      www.OpenFOAM.org                      |
|    \\/     M anipulation  |                                                 |
\*---------------------------------------------------------------------------*/
FoamFile
{
    version     2.0;
    format      ascii;
    class       volVectorField;
    location    "10";
    object      U;
}
// * * * * * * * * * * * * * * * * * * * * * * * * * * * * * * * * * * * * * //

dimensions      [0 1 -1 0 0 0 0];

internalField   nonuniform List<vector> 
400
(
(0.00142821 -0.00312913 0)
(-0.00378171 0.00279952 0)
(-0.0185842 0.00957788 0)
(-0.0467362 0.0155336 0)
(-0.0787579 0.0164195 0)
(-0.108356 0.0148239 0)
(-0.134183 0.0126937 0)
(-0.154589 0.0102285 0)
(-0.170292 0.00799719 0)
(-0.181436 0.0054783 0)
(-0.188058 0.0033569 0)
(-0.190742 0.00123119 0)
(-0.189534 -0.00222172 0)
(-0.181796 -0.00461603 0)
(-0.169187 -0.00888344 0)
(-0.148596 -0.0126844 0)
(-0.121158 -0.0175316 0)
(-0.0860153 -0.020339 0)
(-0.0487352 -0.018937 0)
(-0.0154543 -0.0103363 0)
(-0.00583638 0.00594337 0)
(-0.0226074 0.0216399 0)
(-0.0493485 0.0362952 0)
(-0.0811735 0.0431727 0)
(-0.111075 0.0430418 0)
(-0.136408 0.0390027 0)
(-0.156302 0.0330424 0)
(-0.17087 0.0266797 0)
(-0.183307 0.01865 0)
(-0.190515 0.0124548 0)
(-0.194993 0.00565379 0)
(-0.194784 -0.000390863 0)
(-0.191419 -0.00757478 0)
(-0.183591 -0.0152933 0)
(-0.171312 -0.0249201 0)
(-0.152975 -0.0360852 0)
(-0.128168 -0.0489246 0)
(-0.0959608 -0.060279 0)
(-0.059981 -0.0621081 0)
(-0.0211317 -0.0465644 0)
(-0.0116785 0.0274646 0)
(-0.036063 0.0486185 0)
(-0.0662474 0.0642616 0)
(-0.0955118 0.0694883 0)
(-0.119789 0.0661599 0)
(-0.138038 0.0576667 0)
(-0.150646 0.0466162 0)
(-0.160827 0.0348403 0)
(-0.166036 0.0251348 0)
(-0.167611 0.0150636 0)
(-0.167975 0.00583879 0)
(-0.166014 -0.00369423 0)
(-0.162983 -0.0133953 0)
(-0.156215 -0.0246013 0)
(-0.147207 -0.0378923 0)
(-0.133603 -0.0545539 0)
(-0.1151 -0.0743555 0)
(-0.0890933 -0.0950588 0)
(-0.0595309 -0.105359 0)
(-0.022158 -0.0928497 0)
(-0.0141772 0.0532092 0)
(-0.0413116 0.0767122 0)
(-0.0698542 0.0901858 0)
(-0.094017 0.0916124 0)
(-0.111249 0.0837191 0)
(-0.121823 0.0701764 0)
(-0.127838 0.0553205 0)
(-0.130137 0.0411246 0)
(-0.130194 0.0281312 0)
(-0.131576 0.0161759 0)
(-0.130366 0.00546363 0)
(-0.129239 -0.00525302 0)
(-0.125773 -0.0162604 0)
(-0.121448 -0.0290385 0)
(-0.114761 -0.0444055 0)
(-0.106366 -0.0640944 0)
(-0.0939663 -0.0888908 0)
(-0.0739564 -0.117864 0)
(-0.0521869 -0.137277 0)
(-0.0198058 -0.132344 0)
(-0.0138602 0.0785289 0)
(-0.0385306 0.101247 0)
(-0.0631002 0.111456 0)
(-0.0814236 0.108783 0)
(-0.0919567 0.0955962 0)
(-0.0962486 0.0776187 0)
(-0.0979468 0.0597571 0)
(-0.0988676 0.0434361 0)
(-0.0997699 0.0292586 0)
(-0.10011 0.0164102 0)
(-0.0993774 0.0045425 0)
(-0.0979019 -0.00723051 0)
(-0.0950868 -0.0194334 0)
(-0.0911662 -0.0331818 0)
(-0.0860605 -0.0495407 0)
(-0.0798165 -0.0702865 0)
(-0.0728385 -0.0975281 0)
(-0.0566772 -0.133962 0)
(-0.0425925 -0.162374 0)
(-0.0167981 -0.165614 0)
(-0.0110821 0.10154 0)
(-0.0321019 0.123933 0)
(-0.0516658 0.129895 0)
(-0.0647524 0.121722 0)
(-0.0705299 0.102914 0)
(-0.0719228 0.0812156 0)
(-0.0732267 0.0613862 0)
(-0.0746944 0.0442108 0)
(-0.0759705 0.0294481 0)
(-0.0765295 0.0158666 0)
(-0.0763295 0.00304989 0)
(-0.0750795 -0.00993365 0)
(-0.0727671 -0.0234875 0)
(-0.0692005 -0.0384202 0)
(-0.0644699 -0.0555453 0)
(-0.0585266 -0.0764555 0)
(-0.0550646 -0.102883 0)
(-0.0415785 -0.142842 0)
(-0.0366469 -0.180791 0)
(-0.00944468 -0.192048 0)
(-0.00870894 0.120613 0)
(-0.024088 0.140521 0)
(-0.0385167 0.142416 0)
(-0.047562 0.129782 0)
(-0.0505538 0.106907 0)
(-0.0514018 0.08314 0)
(-0.0532667 0.0625917 0)
(-0.0549609 0.0452534 0)
(-0.0563073 0.0301407 0)
(-0.0569749 0.0160938 0)
(-0.056972 0.00254802 0)
(-0.0560787 -0.0113496 0)
(-0.05431 -0.0260861 0)
(-0.0515676 -0.0423731 0)
(-0.0479743 -0.0607696 0)
(-0.041699 -0.0828502 0)
(-0.0409339 -0.1085 0)
(-0.0278926 -0.147792 0)
(-0.0294644 -0.194141 0)
(-0.00639548 -0.213715 0)
(-0.00517059 0.134105 0)
(-0.0156391 0.153763 0)
(-0.0260141 0.153078 0)
(-0.0318727 0.136532 0)
(-0.0334472 0.110457 0)
(-0.0343007 0.085098 0)
(-0.0362941 0.0640021 0)
(-0.0377805 0.0464441 0)
(-0.0389764 0.0309414 0)
(-0.039568 0.0164226 0)
(-0.0396481 0.00226486 0)
(-0.0390855 -0.0122502 0)
(-0.037909 -0.027713 0)
(-0.0359489 -0.0449297 0)
(-0.0342208 -0.0641323 0)
(-0.0279079 -0.0872633 0)
(-0.0300257 -0.11291 0)
(-0.0173991 -0.151682 0)
(-0.0247257 -0.20194 0)
(-0.00179308 -0.230406 0)
(-0.00302344 0.142922 0)
(-0.00793817 0.160763 0)
(-0.0139457 0.158143 0)
(-0.0173936 0.139535 0)
(-0.0181658 0.11181 0)
(-0.0190602 0.0859192 0)
(-0.0209493 0.0649582 0)
(-0.0221698 0.0474163 0)
(-0.0231512 0.0316367 0)
(-0.0236516 0.0167304 0)
(-0.023847 0.00211856 0)
(-0.023651 -0.0128554 0)
(-0.0232006 -0.0287797 0)
(-0.0217491 -0.0467191 0)
(-0.0222006 -0.0666082 0)
(-0.0158141 -0.0905224 0)
(-0.0207914 -0.115997 0)
(-0.00829625 -0.153992 0)
(-0.0203326 -0.206016 0)
(0.000606024 -0.243653 0)
(0.00105207 0.145313 0)
(-0.000486612 0.165724 0)
(-0.00309103 0.162638 0)
(-0.00432123 0.142813 0)
(-0.00465531 0.114262 0)
(-0.00537543 0.0879108 0)
(-0.00681674 0.0665099 0)
(-0.00759689 0.0484971 0)
(-0.00826187 0.0323144 0)
(-0.0086883 0.0171204 0)
(-0.00904785 0.00228172 0)
(-0.00917473 -0.0129361 0)
(-0.00964244 -0.0289965 0)
(-0.00840153 -0.0471966 0)
(-0.011116 -0.0675612 0)
(-0.00508925 -0.0918298 0)
(-0.0130327 -0.117787 0)
(-0.000884041 -0.154414 0)
(-0.0174498 -0.207401 0)
(0.00378304 -0.253334 0)
(0.00324167 0.142962 0)
(0.00603674 0.16449 0)
(0.00777084 0.161425 0)
(0.00846117 0.142167 0)
(0.00875685 0.113915 0)
(0.00843021 0.0877084 0)
(0.00740192 0.0664312 0)
(0.00689114 0.0485758 0)
(0.00636115 0.0325589 0)
(0.00588911 0.01747 0)
(0.00527596 0.00270069 0)
(0.00496645 -0.0125551 0)
(0.00341481 -0.0286357 0)
(0.00445557 -0.0467646 0)
(-9.21792e-05 -0.0674365 0)
(0.00514827 -0.0915944 0)
(-0.00539831 -0.117603 0)
(0.00627563 -0.152335 0)
(-0.0149158 -0.206373 0)
(0.00600101 -0.260149 0)
(0.00587346 0.13703 0)
(0.0128782 0.161651 0)
(0.0174809 0.160207 0)
(0.0206362 0.143605 0)
(0.021804 0.115553 0)
(0.022029 0.0894498 0)
(0.0214466 0.0677859 0)
(0.0212077 0.0495431 0)
(0.0209136 0.0333371 0)
(0.0205888 0.018158 0)
(0.0197129 0.00348008 0)
(0.0193966 -0.0116159 0)
(0.0166781 -0.0274914 0)
(0.0174161 -0.0454396 0)
(0.011331 -0.065745 0)
(0.0153774 -0.0899648 0)
(0.00257461 -0.115277 0)
(0.0128902 -0.148707 0)
(-0.0130423 -0.202911 0)
(0.00933751 -0.263887 0)
(0.00816897 0.124725 0)
(0.0189772 0.151932 0)
(0.0278186 0.151969 0)
(0.0329762 0.1398 0)
(0.0360497 0.113532 0)
(0.0371787 0.0879386 0)
(0.0371498 0.0664995 0)
(0.0371186 0.048556 0)
(0.0368669 0.0328675 0)
(0.0366538 0.0182437 0)
(0.0350754 0.00424091 0)
(0.0348746 -0.0102911 0)
(0.0307133 -0.0254316 0)
(0.0313697 -0.0432881 0)
(0.023448 -0.0624541 0)
(0.0264568 -0.0869012 0)
(0.0113981 -0.109991 0)
(0.0196416 -0.142307 0)
(-0.0103929 -0.197045 0)
(0.0128351 -0.265282 0)
(0.0107201 0.11017 0)
(0.0244613 0.142214 0)
(0.0369558 0.145811 0)
(0.0448643 0.136607 0)
(0.0502217 0.11443 0)
(0.0528474 0.0895543 0)
(0.0537439 0.0678212 0)
(0.0541467 0.0495197 0)
(0.0538524 0.0339285 0)
(0.0541685 0.0195794 0)
(0.0517648 0.00608739 0)
(0.0520557 -0.00807084 0)
(0.0466011 -0.0224389 0)
(0.0470875 -0.0398076 0)
(0.0373728 -0.0575583 0)
(0.0390279 -0.0812668 0)
(0.0214318 -0.102206 0)
(0.0265609 -0.134438 0)
(-0.00751657 -0.190385 0)
(0.0174418 -0.264976 0)
(0.0118515 0.0889102 0)
(0.0289013 0.123174 0)
(0.0450931 0.130749 0)
(0.056814 0.125785 0)
(0.0654218 0.108297 0)
(0.070665 0.0862679 0)
(0.073325 0.0656539 0)
(0.0750284 0.0477879 0)
(0.0744923 0.0327207 0)
(0.0756615 0.0190876 0)
(0.0722309 0.00681742 0)
(0.0727556 -0.00633464 0)
(0.0658966 -0.0190591 0)
(0.0655984 -0.0350539 0)
(0.0540279 -0.0506861 0)
(0.053619 -0.0729366 0)
(0.0328711 -0.0911482 0)
(0.0343879 -0.123094 0)
(-0.00449712 -0.180851 0)
(0.0223304 -0.263907 0)
(0.0130097 0.0706169 0)
(0.030481 0.107656 0)
(0.0493956 0.118372 0)
(0.0652871 0.116539 0)
(0.078036 0.103886 0)
(0.087333 0.0852738 0)
(0.0927923 0.0666093 0)
(0.0975265 0.0494447 0)
(0.0974338 0.035048 0)
(0.100022 0.0217529 0)
(0.0960413 0.0105171 0)
(0.0966367 -0.00181101 0)
(0.0888138 -0.0129428 0)
(0.0873307 -0.0275676 0)
(0.0742804 -0.0410333 0)
(0.0703658 -0.0611349 0)
(0.0458266 -0.0764493 0)
(0.0429895 -0.109438 0)
(-0.00196844 -0.17065 0)
(0.0281859 -0.260622 0)
(0.00759218 0.0434289 0)
(0.0288593 0.0790862 0)
(0.0508373 0.0927926 0)
(0.0708131 0.0946902 0)
(0.0883388 0.0871327 0)
(0.103372 0.0737964 0)
(0.112482 0.0593278 0)
(0.121796 0.0448598 0)
(0.123636 0.0324049 0)
(0.128305 0.0202855 0)
(0.124857 0.010541 0)
(0.125457 -0.000293401 0)
(0.116822 -0.00922001 0)
(0.113253 -0.0210892 0)
(0.0979899 -0.0307838 0)
(0.0890078 -0.0466073 0)
(0.0602909 -0.0585808 0)
(0.0535635 -0.0920808 0)
(0.00168044 -0.155396 0)
(0.0359663 -0.24957 0)
(-0.00139582 0.044608 0)
(0.0160406 0.0678678 0)
(0.0409562 0.0773587 0)
(0.0654875 0.0782178 0)
(0.0871768 0.0728094 0)
(0.109082 0.0626652 0)
(0.122917 0.0522759 0)
(0.137256 0.0412261 0)
(0.142273 0.0328425 0)
(0.14921 0.0230081 0)
(0.147632 0.0161895 0)
(0.148363 0.0072075 0)
(0.140643 0.00145421 0)
(0.135611 -0.0077931 0)
(0.119928 -0.0137828 0)
(0.109294 -0.0260481 0)
(0.0801534 -0.0367343 0)
(0.0728796 -0.070466 0)
(0.0152009 -0.130521 0)
(0.0516583 -0.21816 0)
(-0.00858262 0.0107905 0)
(-0.00578265 0.0174542 0)
(0.0246293 0.0286451 0)
(0.0569631 0.0338016 0)
(0.0833051 0.0349747 0)
(0.110442 0.0312521 0)
(0.128982 0.027702 0)
(0.147377 0.0212237 0)
(0.157669 0.0173281 0)
(0.167517 0.0116428 0)
(0.170926 0.00894869 0)
(0.173837 0.00372049 0)
(0.171488 0.00154468 0)
(0.168434 -0.00382443 0)
(0.158882 -0.00631317 0)
(0.15161 -0.0139944 0)
(0.131428 -0.0205511 0)
(0.122546 -0.0464316 0)
(0.0627271 -0.0889273 0)
(0.0880493 -0.159578 0)
(0.0470852 0.0976885 0)
(0.0532061 0.0572767 0)
(0.0871773 0.0358857 0)
(0.117343 0.0272979 0)
(0.142411 0.0238949 0)
(0.169364 0.0205691 0)
(0.19163 0.0185885 0)
(0.213022 0.0158115 0)
(0.229154 0.0144114 0)
(0.243565 0.0121139 0)
(0.253433 0.0112732 0)
(0.261765 0.0091345 0)
(0.266558 0.00860021 0)
(0.269477 0.0060863 0)
(0.268577 0.00499857 0)
(0.264764 0.00251103 0)
(0.254368 0.00115454 0)
(0.237206 -0.00823006 0)
(0.180697 -0.0205008 0)
(0.168634 -0.116182 0)
)
;

boundaryField
{
    movingWall
    {
        type            fixedValue;
        value           uniform (1 0 0);
    }
    fixedWalls
    {
        type            noSlip;
    }
    frontAndBack
    {
        type            empty;
    }
}


// ************************************************************************* //
