/*--------------------------------*- C++ -*----------------------------------*\
| =========                 |                                                 |
| \\      /  F ield         | OpenFOAM: The Open Source CFD Toolbox           |
|  \\    /   O peration     | Version:  4.1                                   |
|   \\  /    A nd           | Web:      www.OpenFOAM.org                      |
|    \\/     M anipulation  |                                                 |
\*---------------------------------------------------------------------------*/
FoamFile
{
    version     2.0;
    format      ascii;
    class       volScalarField;
    location    "6.5";
    object      epsilon;
}
// * * * * * * * * * * * * * * * * * * * * * * * * * * * * * * * * * * * * * //

dimensions      [0 2 -3 0 0 0 0];

internalField   nonuniform List<scalar> 
400
(
0.0002907
0.000913079
0.00288552
0.0059582
0.00884813
0.010909
0.012181
0.0127853
0.0129894
0.0129438
0.0123713
0.0117012
0.0107637
0.00987238
0.00897178
0.00817495
0.00750626
0.00684857
0.00536992
0.00418052
0.000667587
0.00165995
0.00351248
0.00486302
0.00527877
0.00504129
0.00439352
0.00374707
0.00315977
0.0027326
0.00249655
0.00242232
0.00256925
0.00290755
0.0034228
0.00425705
0.00554766
0.0072816
0.00925109
0.0100993
0.00158619
0.00240912
0.00308585
0.00315763
0.00254493
0.00201157
0.00154329
0.00128235
0.00113539
0.00107216
0.00105617
0.0011008
0.00123697
0.00145871
0.00188642
0.00264359
0.0040055
0.00643487
0.0107453
0.0160701
0.0023836
0.00233496
0.00242757
0.00193973
0.00130743
0.000989232
0.000762346
0.000654951
0.000576915
0.000536655
0.000518701
0.000515585
0.000564982
0.000672844
0.000909447
0.00141069
0.00252421
0.00500165
0.0108584
0.0202757
0.00297335
0.00213439
0.0018523
0.00119548
0.000772371
0.000573525
0.000437529
0.000367023
0.000306298
0.00027578
0.000260667
0.000257081
0.000282579
0.000345956
0.000489727
0.000831257
0.00170163
0.0039059
0.0101711
0.0235769
0.00357031
0.0018756
0.00139118
0.000789592
0.000503885
0.000365547
0.000269289
0.000215525
0.000173965
0.000154056
0.000145454
0.000144173
0.000163342
0.000203353
0.000292986
0.000518447
0.00118433
0.003193
0.00966081
0.026185
0.00419884
0.00162896
0.00106421
0.000573401
0.000360153
0.00025485
0.000180377
0.000138973
0.000111179
9.83484e-05
9.35902e-05
9.36267e-05
0.000107987
0.000135955
0.000195141
0.000337522
0.000817574
0.00255141
0.00911182
0.0284077
0.00494388
0.00145331
0.000847157
0.000452092
0.000281877
0.000194618
0.000133168
9.98311e-05
7.96797e-05
7.04167e-05
6.71836e-05
6.84213e-05
7.92208e-05
0.000100669
0.000144589
0.00024286
0.000606876
0.0021336
0.00873637
0.0303347
0.00563131
0.00131906
0.00070678
0.000382813
0.000241613
0.00016331
0.000108895
7.95084e-05
6.31843e-05
5.56259e-05
5.30492e-05
5.44045e-05
6.26531e-05
7.9258e-05
0.000112921
0.000182426
0.000436942
0.0017408
0.00845375
0.0321509
0.00645805
0.00128132
0.000620931
0.000346369
0.000221732
0.000146872
9.59704e-05
6.8885e-05
5.46805e-05
4.80102e-05
4.57123e-05
4.70303e-05
5.3525e-05
6.74414e-05
9.50889e-05
0.000153809
0.000352752
0.00151547
0.0082894
0.0339192
0.00706411
0.00135467
0.000572947
0.000325527
0.000216122
0.000143879
9.44164e-05
6.67587e-05
5.22591e-05
4.52288e-05
4.27183e-05
4.40023e-05
4.9214e-05
6.15976e-05
8.54863e-05
0.000138754
0.000300008
0.00134496
0.00821029
0.0357956
0.00761449
0.00157097
0.000583211
0.000327096
0.00021883
0.000146911
9.73606e-05
6.88363e-05
5.35999e-05
4.59845e-05
4.31698e-05
4.38764e-05
4.80274e-05
5.93807e-05
8.20419e-05
0.000132912
0.000282877
0.00127848
0.00817432
0.037887
0.0077007
0.00192231
0.000632732
0.000338809
0.000227076
0.000155007
0.000105163
7.50903e-05
5.83939e-05
4.9669e-05
4.66096e-05
4.74417e-05
5.11595e-05
6.11374e-05
8.19746e-05
0.000132011
0.000278703
0.0012669
0.0082863
0.0404076
0.00754087
0.00237862
0.000761212
0.00037295
0.000244142
0.000171264
0.000121077
8.85336e-05
6.92553e-05
5.8724e-05
5.52082e-05
5.63596e-05
6.04592e-05
7.10676e-05
9.29081e-05
0.000147592
0.000305093
0.00138631
0.00934695
0.0435788
0.0069981
0.00276879
0.000953258
0.000447443
0.00027926
0.000194835
0.000142571
0.000109491
8.94574e-05
7.76586e-05
7.33592e-05
7.47953e-05
7.9394e-05
9.1125e-05
0.000115642
0.000181844
0.000373146
0.00166307
0.0108753
0.0480309
0.00606942
0.00300349
0.00130285
0.00062521
0.000360434
0.000243564
0.00017866
0.000139997
0.000117317
0.000105066
0.000101278
0.000103559
0.00010969
0.000125423
0.000161016
0.000261301
0.000542931
0.00229969
0.0136147
0.0542976
0.00430994
0.00282303
0.00148837
0.000822416
0.00051028
0.000350061
0.000259413
0.000206626
0.00017583
0.000160443
0.000157999
0.000162579
0.000175402
0.000213651
0.000297674
0.000512282
0.0010599
0.00393102
0.0186882
0.0637098
0.00329699
0.00245443
0.00181835
0.00127637
0.000940897
0.000737444
0.000615222
0.000553428
0.000527308
0.000536363
0.000561091
0.00062313
0.000692962
0.00085627
0.00113608
0.00184738
0.00344446
0.00944333
0.0305332
0.0792863
0.0040927
0.0057143
0.00708277
0.0073165
0.00724968
0.00723699
0.00731346
0.00754209
0.00783485
0.00835095
0.00877451
0.00958303
0.0102302
0.0115217
0.0125857
0.0162321
0.022342
0.0372839
0.0702688
0.110945
0.0449733
0.0891021
0.122192
0.134948
0.138279
0.138783
0.138752
0.138967
0.139307
0.140194
0.14101
0.142714
0.144493
0.147042
0.150741
0.154152
0.157924
0.162679
0.178529
0.153544
)
;

boundaryField
{
    movingWall
    {
        Cmu             0.09;
        kappa           0.41;
        E               9.8;
        type            epsilonWallFunction;
        value           nonuniform List<scalar> 
20
(
0.0449733
0.0891021
0.122192
0.134948
0.138279
0.138783
0.138752
0.138967
0.139307
0.140194
0.14101
0.142714
0.144493
0.147042
0.150741
0.154152
0.157924
0.162679
0.178529
0.153544
)
;
    }
    fixedWalls
    {
        Cmu             0.09;
        kappa           0.41;
        E               9.8;
        type            epsilonWallFunction;
        value           nonuniform List<scalar> 
60
(
0.0002907
0.000667587
0.00158619
0.0023836
0.00297335
0.00357031
0.00419884
0.00494388
0.00563131
0.00645805
0.00706411
0.00761449
0.0077007
0.00754087
0.0069981
0.00606942
0.00430994
0.00329699
0.0040927
0.0449733
0.00418052
0.0100993
0.0160701
0.0202757
0.0235769
0.026185
0.0284077
0.0303347
0.0321509
0.0339192
0.0357956
0.037887
0.0404076
0.0435788
0.0480309
0.0542976
0.0637098
0.0792863
0.110945
0.153544
0.0002907
0.000913079
0.00288552
0.0059582
0.00884813
0.010909
0.012181
0.0127853
0.0129894
0.0129438
0.0123713
0.0117012
0.0107637
0.00987238
0.00897178
0.00817495
0.00750626
0.00684857
0.00536992
0.00418052
)
;
    }
    frontAndBack
    {
        type            empty;
    }
}


// ************************************************************************* //
