/*--------------------------------*- C++ -*----------------------------------*\
| =========                 |                                                 |
| \\      /  F ield         | OpenFOAM: The Open Source CFD Toolbox           |
|  \\    /   O peration     | Version:  4.1                                   |
|   \\  /    A nd           | Web:      www.OpenFOAM.org                      |
|    \\/     M anipulation  |                                                 |
\*---------------------------------------------------------------------------*/
FoamFile
{
    version     2.0;
    format      ascii;
    class       volScalarField;
    location    "6.5";
    object      k;
}
// * * * * * * * * * * * * * * * * * * * * * * * * * * * * * * * * * * * * * //

dimensions      [0 2 -2 0 0 0 0];

internalField   nonuniform List<scalar> 
400
(
0.000148771
0.000319043
0.000687043
0.00111406
0.00145011
0.00166733
0.00179452
0.00185337
0.00187303
0.00186859
0.00181306
0.00174695
0.00165232
0.00155979
0.00146343
0.00137545
0.0012994
0.00122235
0.00103937
0.000879552
0.000258919
0.000553839
0.000893523
0.00106263
0.00112091
0.00104258
0.000956272
0.0008707
0.000811676
0.000779196
0.000766186
0.000773258
0.000829756
0.0008984
0.00101573
0.00115833
0.00133989
0.0015271
0.00164327
0.00158356
0.000460979
0.000764056
0.000861391
0.000870692
0.00069511
0.000612255
0.000534751
0.000496591
0.000472742
0.000461271
0.000457146
0.00045873
0.000485294
0.000528025
0.00061557
0.000763393
0.000995134
0.00135167
0.00182213
0.00215833
0.000604829
0.000767236
0.000775974
0.000623741
0.000483829
0.000421758
0.000374271
0.000350836
0.000324589
0.000307321
0.000295202
0.000290323
0.000290232
0.000314738
0.000364562
0.000476574
0.000699212
0.00109501
0.0018159
0.00252012
0.000700903
0.000751497
0.000655955
0.000463117
0.000369187
0.000323481
0.000288693
0.000266636
0.000245944
0.000233998
0.000225195
0.000221759
0.000221206
0.000233938
0.000262393
0.000335416
0.000519026
0.000902169
0.00170264
0.00278671
0.000791804
0.000712613
0.00054442
0.000372596
0.000300026
0.000264004
0.000236355
0.000219645
0.000206871
0.000199061
0.000195152
0.000193882
0.000196591
0.000206252
0.000224304
0.000266939
0.000407134
0.000774093
0.00164428
0.00298857
0.000882191
0.000657055
0.000461237
0.000316591
0.000257696
0.000228453
0.000206918
0.00019459
0.000185621
0.000180376
0.000178206
0.000177985
0.00018374
0.000193868
0.000208853
0.000233595
0.000328813
0.000654532
0.00157246
0.00315535
0.000983657
0.000595222
0.000404909
0.000282737
0.000233896
0.000209082
0.000190721
0.000179413
0.000170707
0.000164812
0.000162102
0.00016162
0.000167592
0.000179567
0.000197839
0.000216707
0.000285556
0.00057647
0.00153658
0.00329641
0.00107285
0.000557502
0.000365817
0.000262196
0.00022145
0.00019891
0.000181433
0.000169258
0.000159548
0.000152299
0.000148478
0.000147361
0.000152249
0.000163894
0.000183486
0.000201915
0.000247216
0.000497603
0.00150665
0.00342664
0.00117541
0.000523082
0.000342659
0.000251741
0.00021702
0.000195049
0.000176506
0.000162729
0.000151885
0.000143621
0.000138547
0.000136529
0.000139808
0.000150524
0.000169147
0.000192631
0.000225992
0.000450608
0.00149303
0.00355108
0.00124781
0.000526059
0.000326185
0.000245209
0.00021592
0.000193716
0.00017403
0.000159047
0.000147277
0.000138401
0.000132574
0.000130178
0.000132408
0.000141738
0.000157907
0.000183601
0.000207957
0.000406002
0.00148712
0.00368079
0.00131179
0.000544151
0.000326785
0.000245389
0.000216487
0.000194295
0.000174167
0.000157538
0.000144839
0.000135774
0.000129886
0.000128165
0.000129982
0.00013792
0.000152929
0.000179186
0.000200338
0.000385364
0.00148506
0.00382272
0.00132162
0.000580788
0.000334207
0.000247854
0.00021798
0.000195756
0.000175334
0.000158571
0.000145853
0.000137008
0.00013111
0.000129534
0.000130656
0.00013727
0.000151394
0.000177263
0.000195912
0.000376583
0.00149818
0.00399038
0.00130327
0.00064689
0.000355955
0.000255469
0.000221195
0.000198428
0.000178151
0.000161629
0.00014929
0.000141265
0.000135919
0.000135704
0.00013708
0.000143948
0.000154904
0.000177199
0.000194558
0.000375568
0.00159714
0.00419645
0.00123993
0.000703107
0.000390011
0.000272353
0.000228763
0.000203676
0.000183312
0.000167925
0.000156625
0.000150177
0.00014683
0.000147741
0.000150205
0.000157996
0.000166631
0.000182836
0.000198747
0.000407374
0.00175356
0.00447758
0.00112769
0.000763831
0.000458797
0.000309959
0.00024743
0.000215815
0.000193625
0.000178019
0.000167794
0.000163551
0.000163128
0.000164927
0.000167109
0.000173021
0.000177749
0.000187834
0.000213062
0.000480357
0.00202285
0.00485899
0.000897675
0.000745781
0.000513925
0.000365935
0.00028812
0.00024534
0.000216939
0.000198351
0.000184355
0.000178168
0.000174384
0.000174936
0.000176578
0.000181095
0.000187954
0.000206945
0.000267911
0.00066824
0.00248053
0.00540539
0.000750874
0.00070448
0.000588229
0.000466451
0.000382535
0.000326138
0.000285672
0.000260275
0.000239547
0.000229991
0.000222449
0.000223202
0.000226679
0.000239471
0.000269183
0.00035225
0.00054726
0.00123478
0.00340639
0.00625393
0.000867195
0.000969362
0.00105119
0.00102708
0.000976664
0.000941368
0.000932461
0.000941714
0.000963229
0.00101132
0.00105559
0.00114655
0.00122145
0.00137603
0.00150207
0.00183973
0.0023326
0.00346885
0.00591253
0.00782389
0.00428546
0.00675991
0.00834391
0.00891485
0.00906081
0.00908284
0.00908151
0.00909091
0.00910578
0.00914441
0.00917985
0.00925367
0.00933041
0.00943983
0.00959748
0.00974174
0.00990008
0.0100978
0.0107436
0.00971638
)
;

boundaryField
{
    movingWall
    {
        type            kqRWallFunction;
        value           nonuniform List<scalar> 
20
(
0.00428546
0.00675991
0.00834391
0.00891485
0.00906081
0.00908284
0.00908151
0.00909091
0.00910578
0.00914441
0.00917985
0.00925367
0.00933041
0.00943983
0.00959748
0.00974174
0.00990008
0.0100978
0.0107436
0.00971638
)
;
    }
    fixedWalls
    {
        type            kqRWallFunction;
        value           nonuniform List<scalar> 
60
(
0.000148771
0.000258919
0.000460979
0.000604829
0.000700903
0.000791804
0.000882191
0.000983657
0.00107285
0.00117541
0.00124781
0.00131179
0.00132162
0.00130327
0.00123993
0.00112769
0.000897675
0.000750874
0.000867195
0.00428546
0.000879552
0.00158356
0.00215833
0.00252012
0.00278671
0.00298857
0.00315535
0.00329641
0.00342664
0.00355108
0.00368079
0.00382272
0.00399038
0.00419645
0.00447758
0.00485899
0.00540539
0.00625393
0.00782389
0.00971638
0.000148771
0.000319043
0.000687043
0.00111406
0.00145011
0.00166733
0.00179452
0.00185337
0.00187303
0.00186859
0.00181306
0.00174695
0.00165232
0.00155979
0.00146343
0.00137545
0.0012994
0.00122235
0.00103937
0.000879552
)
;
    }
    frontAndBack
    {
        type            empty;
    }
}


// ************************************************************************* //
