/*--------------------------------*- C++ -*----------------------------------*\
| =========                 |                                                 |
| \\      /  F ield         | OpenFOAM: The Open Source CFD Toolbox           |
|  \\    /   O peration     | Version:  4.1                                   |
|   \\  /    A nd           | Web:      www.OpenFOAM.org                      |
|    \\/     M anipulation  |                                                 |
\*---------------------------------------------------------------------------*/
FoamFile
{
    version     2.0;
    format      ascii;
    class       volScalarField;
    location    "6.5";
    object      nut;
}
// * * * * * * * * * * * * * * * * * * * * * * * * * * * * * * * * * * * * * //

dimensions      [0 2 -1 0 0 0 0];

internalField   nonuniform List<scalar> 
400
(
6.85223e-06
1.0033e-05
1.47227e-05
1.87475e-05
2.13892e-05
2.29353e-05
2.37934e-05
2.418e-05
2.43077e-05
2.4278e-05
2.39139e-05
2.34732e-05
2.28281e-05
2.21795e-05
2.14836e-05
2.0828e-05
2.02444e-05
1.9635e-05
1.81058e-05
1.66547e-05
9.03778e-06
1.66309e-05
2.04569e-05
2.08979e-05
2.14216e-05
1.94052e-05
1.87324e-05
1.82091e-05
1.87652e-05
1.99968e-05
2.11627e-05
2.22157e-05
2.41178e-05
2.49836e-05
2.71279e-05
2.83659e-05
2.91252e-05
2.88239e-05
2.62705e-05
2.23471e-05
1.20572e-05
2.18089e-05
2.16406e-05
2.16078e-05
1.70873e-05
1.67715e-05
1.66763e-05
1.73074e-05
1.77152e-05
1.78606e-05
1.78081e-05
1.72048e-05
1.71354e-05
1.72022e-05
1.80783e-05
1.98401e-05
2.2251e-05
2.55532e-05
2.78088e-05
2.60891e-05
1.38126e-05
2.26893e-05
2.23236e-05
1.80513e-05
1.61142e-05
1.61835e-05
1.65372e-05
1.69138e-05
1.64361e-05
1.58391e-05
1.51205e-05
1.47132e-05
1.34184e-05
1.32503e-05
1.31525e-05
1.44902e-05
1.74315e-05
2.15758e-05
2.73313e-05
2.81909e-05
1.48701e-05
2.38135e-05
2.09064e-05
1.61467e-05
1.58821e-05
1.64205e-05
1.71439e-05
1.74336e-05
1.77733e-05
1.78691e-05
1.75095e-05
1.72162e-05
1.55847e-05
1.42371e-05
1.2653e-05
1.21807e-05
1.42481e-05
1.87542e-05
2.56521e-05
2.96443e-05
1.58042e-05
2.43674e-05
1.91747e-05
1.5824e-05
1.60779e-05
1.71601e-05
1.86704e-05
2.01459e-05
2.214e-05
2.31492e-05
2.35649e-05
2.34657e-05
2.12947e-05
1.88272e-05
1.5455e-05
1.23697e-05
1.25963e-05
1.689e-05
2.51871e-05
3.06986e-05
1.66816e-05
2.38526e-05
1.79914e-05
1.57319e-05
1.65947e-05
1.84311e-05
2.13628e-05
2.4522e-05
2.78916e-05
2.97737e-05
3.05391e-05
3.04516e-05
2.81372e-05
2.48806e-05
2.01176e-05
1.45501e-05
1.19018e-05
1.51121e-05
2.44229e-05
3.15429e-05
1.76142e-05
2.19403e-05
1.74178e-05
1.59141e-05
1.74674e-05
2.02159e-05
2.45833e-05
2.90192e-05
3.29152e-05
3.47171e-05
3.52012e-05
3.43589e-05
3.19086e-05
2.88272e-05
2.43631e-05
1.74033e-05
1.20927e-05
1.40179e-05
2.43231e-05
3.22393e-05
1.83955e-05
2.12066e-05
1.70407e-05
1.61625e-05
1.82673e-05
2.18043e-05
2.72062e-05
3.24287e-05
3.62589e-05
3.75283e-05
3.74015e-05
3.5923e-05
3.32974e-05
3.05017e-05
2.68332e-05
2.01139e-05
1.25884e-05
1.28015e-05
2.41666e-05
3.28689e-05
1.92538e-05
1.92188e-05
1.70186e-05
1.64669e-05
1.91168e-05
2.33126e-05
2.92163e-05
3.45978e-05
3.79701e-05
3.86676e-05
3.77925e-05
3.56712e-05
3.2866e-05
3.02362e-05
2.70796e-05
2.17126e-05
1.30304e-05
1.20585e-05
2.42023e-05
3.34594e-05
1.98373e-05
1.83856e-05
1.6713e-05
1.66237e-05
1.94145e-05
2.34734e-05
2.88698e-05
3.41026e-05
3.73554e-05
3.81158e-05
3.70291e-05
3.46608e-05
3.20612e-05
2.93528e-05
2.62511e-05
2.18649e-05
1.29736e-05
1.10304e-05
2.42425e-05
3.40639e-05
2.03389e-05
1.69634e-05
1.64794e-05
1.65683e-05
1.92752e-05
2.31266e-05
2.80408e-05
3.24487e-05
3.52248e-05
3.608e-05
3.51714e-05
3.3694e-05
3.16609e-05
2.88307e-05
2.56559e-05
2.17413e-05
1.27695e-05
1.04542e-05
2.42817e-05
3.47135e-05
2.0414e-05
1.57927e-05
1.58874e-05
1.63185e-05
1.88323e-05
2.22495e-05
2.63094e-05
3.01373e-05
3.27871e-05
3.40132e-05
3.31926e-05
3.18308e-05
3.00316e-05
2.77387e-05
2.5164e-05
2.14225e-05
1.23943e-05
1.00745e-05
2.43788e-05
3.54657e-05
2.02715e-05
1.58336e-05
1.49805e-05
1.57495e-05
1.80364e-05
2.0691e-05
2.35917e-05
2.65565e-05
2.89635e-05
3.0584e-05
3.01162e-05
2.94078e-05
2.79724e-05
2.6241e-05
2.32442e-05
1.9147e-05
1.11662e-05
9.15711e-06
2.45616e-05
3.63689e-05
1.97724e-05
1.60692e-05
1.4361e-05
1.492e-05
1.68657e-05
1.91626e-05
2.12125e-05
2.3179e-05
2.46802e-05
2.61373e-05
2.64495e-05
2.62646e-05
2.55755e-05
2.46545e-05
2.16093e-05
1.65449e-05
9.52715e-06
8.98089e-06
2.54472e-05
3.75671e-05
1.88571e-05
1.74828e-05
1.45408e-05
1.383e-05
1.52869e-05
1.72105e-05
1.88858e-05
2.0373e-05
2.15992e-05
2.29133e-05
2.36475e-05
2.36395e-05
2.29125e-05
2.14814e-05
1.766e-05
1.2152e-05
7.52508e-06
9.03029e-06
2.70496e-05
3.9134e-05
1.68271e-05
1.77317e-05
1.5971e-05
1.46541e-05
1.46413e-05
1.54752e-05
1.63277e-05
1.71366e-05
1.73963e-05
1.78066e-05
1.73221e-05
1.69409e-05
1.59985e-05
1.38149e-05
1.06809e-05
7.52389e-06
6.09482e-06
1.02236e-05
2.96322e-05
4.12753e-05
1.53907e-05
1.81982e-05
1.71261e-05
1.53419e-05
1.39972e-05
1.29813e-05
1.19384e-05
1.10165e-05
9.79397e-06
8.87575e-06
7.93728e-06
7.1955e-06
6.67356e-06
6.02753e-06
5.74023e-06
6.04492e-06
7.82544e-06
1.45309e-05
3.42027e-05
4.43966e-05
1.65373e-05
1.47997e-05
1.40411e-05
1.29761e-05
1.18417e-05
1.10206e-05
1.06999e-05
1.05825e-05
1.06579e-05
1.10225e-05
1.1429e-05
1.23461e-05
1.31254e-05
1.47905e-05
1.6134e-05
1.87661e-05
2.19181e-05
2.90464e-05
4.47741e-05
4.96571e-05
3.67522e-05
4.61568e-05
5.12789e-05
5.30035e-05
5.34344e-05
5.34994e-05
5.34957e-05
5.35238e-05
5.35678e-05
5.36816e-05
5.37855e-05
5.40013e-05
5.42246e-05
5.45417e-05
5.49955e-05
5.54074e-05
5.58561e-05
5.64116e-05
5.81884e-05
5.53372e-05
)
;

boundaryField
{
    movingWall
    {
        type            nutkWallFunction;
        Cmu             0.09;
        kappa           0.41;
        E               9.8;
        value           nonuniform List<scalar> 
20
(
0
0
6.64429e-07
9.47908e-07
1.01869e-06
1.02932e-06
1.02867e-06
1.03321e-06
1.04037e-06
1.05894e-06
1.07593e-06
1.11121e-06
1.14772e-06
1.19948e-06
1.27344e-06
1.34051e-06
1.41347e-06
1.50366e-06
1.79129e-06
1.32876e-06
)
;
    }
    fixedWalls
    {
        type            nutkWallFunction;
        Cmu             0.09;
        kappa           0.41;
        E               9.8;
        value           nonuniform List<scalar> 
60
(
0
0
0
0
0
0
0
0
0
0
0
0
0
0
0
0
0
0
0
0
0
0
0
0
0
0
0
0
0
0
0
0
0
0
0
0
0
0
3.96321e-07
1.32876e-06
0
0
0
0
0
0
0
0
0
0
0
0
0
0
0
0
0
0
0
0
)
;
    }
    frontAndBack
    {
        type            empty;
    }
}


// ************************************************************************* //
