/*--------------------------------*- C++ -*----------------------------------*\
| =========                 |                                                 |
| \\      /  F ield         | OpenFOAM: The Open Source CFD Toolbox           |
|  \\    /   O peration     | Version:  4.1                                   |
|   \\  /    A nd           | Web:      www.OpenFOAM.org                      |
|    \\/     M anipulation  |                                                 |
\*---------------------------------------------------------------------------*/
FoamFile
{
    version     2.0;
    format      ascii;
    class       volScalarField;
    location    "6.5";
    object      p;
}
// * * * * * * * * * * * * * * * * * * * * * * * * * * * * * * * * * * * * * //

dimensions      [0 2 -2 0 0 0 0];

internalField   nonuniform List<scalar> 
400
(
4.76406e-08
-0.000105691
-0.000262913
-0.000794445
-0.00194758
-0.00366827
-0.00563832
-0.00751267
-0.00904272
-0.0101077
-0.0106075
-0.0104464
-0.009529
-0.00776534
-0.00509902
-0.00161691
0.00236267
0.00607075
0.00848714
0.00919789
0.000157499
-1.17448e-05
-0.000384773
-0.00125382
-0.00271137
-0.00459372
-0.00657294
-0.00837477
-0.00985205
-0.0108715
-0.0113484
-0.0112311
-0.0104785
-0.00895992
-0.00660143
-0.00341426
0.00038598
0.00420068
0.00696323
0.00808624
0.000130895
-0.000261227
-0.00105128
-0.00240539
-0.00426856
-0.00633278
-0.00830055
-0.0100287
-0.0114155
-0.0123238
-0.01274
-0.0126463
-0.0120054
-0.0107616
-0.00883206
-0.00616157
-0.00279317
0.00094998
0.00406792
0.00562887
-0.000434969
-0.00106758
-0.00230236
-0.00414347
-0.00632419
-0.00847519
-0.0103718
-0.0118913
-0.0129736
-0.0136538
-0.0139545
-0.0138642
-0.0133531
-0.0123859
-0.0109071
-0.00884073
-0.00611968
-0.00278074
0.000377211
0.00210081
-0.00166095
-0.00248374
-0.00403535
-0.0061714
-0.00843107
-0.0104468
-0.0120827
-0.0133186
-0.0141742
-0.0146989
-0.0149128
-0.0148178
-0.0144063
-0.0136593
-0.0125438
-0.0110016
-0.00893923
-0.00624007
-0.00335968
-0.00168717
-0.00341655
-0.00430254
-0.00596506
-0.0081283
-0.0102474
-0.0120093
-0.0133642
-0.014363
-0.0150614
-0.0154939
-0.0156718
-0.0155989
-0.0152715
-0.0146821
-0.0138167
-0.0126494
-0.0111432
-0.00909181
-0.0067565
-0.00518581
-0.00531069
-0.00617658
-0.00778653
-0.00980446
-0.0116823
-0.013179
-0.0143072
-0.0151483
-0.0157502
-0.0161346
-0.0163053
-0.0162633
-0.0160046
-0.015529
-0.0148362
-0.0139175
-0.0128012
-0.0112736
-0.00951081
-0.00812021
-0.0070043
-0.00779091
-0.00927132
-0.0111019
-0.0127398
-0.014021
-0.014994
-0.0157363
-0.0162801
-0.0166377
-0.0168103
-0.0167964
-0.016592
-0.0161987
-0.015627
-0.0148655
-0.0140083
-0.0128464
-0.011586
-0.0103809
-0.00826194
-0.00898369
-0.0103255
-0.0119929
-0.0134485
-0.0145844
-0.015463
-0.0161476
-0.0166584
-0.0170017
-0.0171776
-0.0171841
-0.017018
-0.0166787
-0.0161884
-0.0155079
-0.014834
-0.0138871
-0.0129787
-0.011965
-0.0090211
-0.00966585
-0.0109088
-0.0124724
-0.0138212
-0.0148855
-0.015722
-0.0163817
-0.0168784
-0.0172163
-0.0173952
-0.0174135
-0.0172694
-0.0169554
-0.0165176
-0.0158396
-0.0153164
-0.014406
-0.0138057
-0.0128786
-0.00924762
-0.00985342
-0.0110339
-0.0125454
-0.013865
-0.0149282
-0.0157683
-0.0164306
-0.0169303
-0.0172715
-0.0174536
-0.0174744
-0.0173354
-0.0170188
-0.0166005
-0.0158695
-0.0154503
-0.0144221
-0.0141295
-0.0131176
-0.00896117
-0.00955575
-0.0107108
-0.0122187
-0.0135794
-0.0146973
-0.0155846
-0.0162806
-0.0168041
-0.0171597
-0.017347
-0.0173621
-0.0172085
-0.0168703
-0.0164017
-0.0156468
-0.0151393
-0.0140299
-0.0139609
-0.0126743
-0.00827273
-0.00886619
-0.0100045
-0.0115057
-0.0129639
-0.0141823
-0.015158
-0.0159216
-0.0164931
-0.0168769
-0.0170731
-0.0170748
-0.0168883
-0.0164935
-0.0159343
-0.0151157
-0.0144157
-0.0132703
-0.0132488
-0.011629
-0.0073186
-0.00786989
-0.00896513
-0.01043
-0.0119942
-0.0133513
-0.0144608
-0.015334
-0.0159854
-0.0164169
-0.0166304
-0.0166135
-0.0163742
-0.0158881
-0.0151985
-0.0142455
-0.0133127
-0.0121222
-0.0120436
-0.0101767
-0.00628736
-0.00672429
-0.00768665
-0.009065
-0.0106753
-0.0121863
-0.0134741
-0.0145053
-0.0152762
-0.0157805
-0.0160224
-0.0159852
-0.0156741
-0.0150645
-0.0142009
-0.0130462
-0.0118683
-0.0105731
-0.0104135
-0.00837642
-0.00535411
-0.00552855
-0.00624731
-0.00745582
-0.00902997
-0.0106762
-0.0121753
-0.0134124
-0.014349
-0.0149598
-0.0152469
-0.0151909
-0.0148073
-0.0140585
-0.0129888
-0.0115911
-0.0101376
-0.00861691
-0.0083134
-0.00586856
-0.00470443
-0.00452481
-0.00484204
-0.00574448
-0.00718368
-0.00889919
-0.0106032
-0.012074
-0.0132209
-0.0139828
-0.0143596
-0.0143275
-0.0138876
-0.0130042
-0.01172
-0.0100444
-0.00821067
-0.00622249
-0.00531238
-0.00104949
-0.00424557
-0.00364935
-0.00352873
-0.00406035
-0.00531827
-0.00705732
-0.00891761
-0.0105802
-0.0119223
-0.012854
-0.0133426
-0.0133601
-0.0129047
-0.0119632
-0.0105193
-0.00854563
-0.00614422
-0.00319488
-0.000290637
0.0090072
-0.00548784
-0.00362808
-0.00280722
-0.0028928
-0.00397151
-0.00572077
-0.00769107
-0.00951663
-0.0110066
-0.0120749
-0.0126658
-0.0127679
-0.0123392
-0.0113612
-0.00971811
-0.00729566
-0.00396845
0.000855775
0.00760269
0.0248228
-0.000723287
0.000880498
-4.60672e-05
-0.00126927
-0.00283719
-0.00478153
-0.00687553
-0.0088479
-0.0104523
-0.0115964
-0.0122181
-0.0123024
-0.0117977
-0.0106603
-0.00878616
-0.00599692
-0.00134348
0.00606531
0.0174215
0.0363993
)
;

boundaryField
{
    movingWall
    {
        type            zeroGradient;
    }
    fixedWalls
    {
        type            zeroGradient;
    }
    frontAndBack
    {
        type            empty;
    }
}


// ************************************************************************* //
