/*--------------------------------*- C++ -*----------------------------------*\
| =========                 |                                                 |
| \\      /  F ield         | OpenFOAM: The Open Source CFD Toolbox           |
|  \\    /   O peration     | Version:  4.1                                   |
|   \\  /    A nd           | Web:      www.OpenFOAM.org                      |
|    \\/     M anipulation  |                                                 |
\*---------------------------------------------------------------------------*/
FoamFile
{
    version     2.0;
    format      ascii;
    class       surfaceScalarField;
    location    "6.5";
    object      phi;
}
// * * * * * * * * * * * * * * * * * * * * * * * * * * * * * * * * * * * * * //

dimensions      [0 3 -1 0 0 0 0];

internalField   nonuniform List<scalar> 
760
(
-2.96653e-08
2.96607e-08
-4.97983e-07
4.68317e-07
-1.45222e-06
9.54239e-07
-2.74783e-06
1.29561e-06
-4.12025e-06
1.37242e-06
-5.41397e-06
1.29372e-06
-6.52926e-06
1.11529e-06
-7.43081e-06
9.01552e-07
-8.09463e-06
6.63816e-07
-8.56244e-06
4.67812e-07
-8.82352e-06
2.61076e-07
-8.89718e-06
7.36593e-08
-8.74971e-06
-1.47464e-07
-8.38165e-06
-3.68062e-07
-7.70833e-06
-6.7332e-07
-6.67701e-06
-1.03132e-06
-5.21439e-06
-1.46262e-06
-3.36956e-06
-1.84483e-06
-1.44736e-06
-1.9222e-06
-1.44736e-06
-6.35765e-07
6.65425e-07
-1.67598e-06
1.50853e-06
-2.99239e-06
2.27064e-06
-4.33586e-06
2.63908e-06
-5.5845e-06
2.62106e-06
-6.65012e-06
2.35933e-06
-7.50301e-06
1.96819e-06
-8.15198e-06
1.55053e-06
-8.6411e-06
1.15293e-06
-8.95066e-06
7.77376e-07
-9.08857e-06
3.98979e-07
-9.01478e-06
-1.32791e-10
-8.81864e-06
-3.43598e-07
-8.42728e-06
-7.59421e-07
-7.81375e-06
-1.28685e-06
-6.89859e-06
-1.94649e-06
-5.61125e-06
-2.74996e-06
-3.89124e-06
-3.56484e-06
-1.87999e-06
-3.93345e-06
-3.32735e-06
-1.07971e-06
1.74513e-06
-2.38038e-06
2.8092e-06
-3.67876e-06
3.56903e-06
-4.84991e-06
3.81023e-06
-5.83035e-06
3.60149e-06
-6.58285e-06
3.11183e-06
-7.13186e-06
2.5172e-06
-7.47689e-06
1.89555e-06
-7.66749e-06
1.34354e-06
-7.71191e-06
8.21796e-07
-7.67705e-06
3.64115e-07
-7.58856e-06
-8.86225e-08
-7.3965e-06
-5.35655e-07
-7.09129e-06
-1.06464e-06
-6.65879e-06
-1.71935e-06
-6.02534e-06
-2.57994e-06
-5.09848e-06
-3.67682e-06
-3.73904e-06
-4.92428e-06
-1.97553e-06
-5.69696e-06
-5.30288e-06
-1.25159e-06
2.99672e-06
-2.54392e-06
4.10153e-06
-3.68261e-06
4.70772e-06
-4.60677e-06
4.7344e-06
-5.25766e-06
4.25238e-06
-5.64183e-06
3.49601e-06
-5.81666e-06
2.69202e-06
-5.86653e-06
1.94543e-06
-5.86008e-06
1.33708e-06
-5.83378e-06
7.95495e-07
-5.77839e-06
3.08726e-07
-5.69514e-06
-1.71873e-07
-5.54979e-06
-6.81007e-07
-5.34522e-06
-1.2692e-06
-5.06837e-06
-1.9962e-06
-4.69743e-06
-2.95087e-06
-4.14605e-06
-4.22821e-06
-3.20298e-06
-5.86734e-06
-1.78598e-06
-7.11396e-06
-7.08886e-06
-1.16352e-06
4.16025e-06
-2.28351e-06
5.22151e-06
-3.20005e-06
5.62427e-06
-3.84166e-06
5.376e-06
-4.18673e-06
4.59745e-06
-4.31386e-06
3.62314e-06
-4.34104e-06
2.7192e-06
-4.34795e-06
1.95235e-06
-4.33355e-06
1.32268e-06
-4.30232e-06
7.6426e-07
-4.24789e-06
2.543e-07
-4.15744e-06
-2.62329e-07
-4.02649e-06
-8.11951e-07
-3.85676e-06
-1.43894e-06
-3.65138e-06
-2.20158e-06
-3.41065e-06
-3.19159e-06
-3.10558e-06
-4.53328e-06
-2.51671e-06
-6.45621e-06
-1.47906e-06
-8.15161e-06
-8.56792e-06
-9.53284e-07
5.11353e-06
-1.84507e-06
6.1133e-06
-2.52289e-06
6.30208e-06
-2.94347e-06
5.79658e-06
-3.12053e-06
4.77452e-06
-3.17816e-06
3.68076e-06
-3.1989e-06
2.73995e-06
-3.22473e-06
1.97818e-06
-3.24462e-06
1.34257e-06
-3.24828e-06
7.67918e-07
-3.21882e-06
2.24836e-07
-3.14806e-06
-3.33083e-07
-3.02824e-06
-9.31768e-07
-2.85852e-06
-1.60867e-06
-2.6526e-06
-2.40749e-06
-2.438e-06
-3.4062e-06
-2.25102e-06
-4.72026e-06
-1.95324e-06
-6.75399e-06
-1.17207e-06
-8.93279e-06
-9.73999e-06
-7.13639e-07
5.82717e-06
-1.34864e-06
6.7483e-06
-1.8229e-06
6.77635e-06
-2.0982e-06
6.07187e-06
-2.2141e-06
4.89041e-06
-2.26459e-06
3.73126e-06
-2.31184e-06
2.7872e-06
-2.36592e-06
2.03226e-06
-2.40964e-06
1.38629e-06
-2.4326e-06
7.9087e-07
-2.42076e-06
2.13004e-07
-2.36996e-06
-3.83882e-07
-2.27304e-06
-1.0287e-06
-2.12732e-06
-1.75438e-06
-1.94384e-06
-2.59098e-06
-1.73542e-06
-3.61462e-06
-1.56467e-06
-4.89101e-06
-1.40616e-06
-6.91251e-06
-9.33293e-07
-9.40565e-06
-1.06733e-05
-4.45091e-07
6.27226e-06
-8.72951e-07
7.17616e-06
-1.19055e-06
7.09395e-06
-1.37046e-06
6.25178e-06
-1.45739e-06
4.97734e-06
-1.51569e-06
3.78957e-06
-1.58088e-06
2.85238e-06
-1.64597e-06
2.09735e-06
-1.69623e-06
1.43655e-06
-1.72437e-06
8.19008e-07
-1.72334e-06
2.11974e-07
-1.6913e-06
-4.15925e-07
-1.62388e-06
-1.09611e-06
-1.51606e-06
-1.8622e-06
-1.37263e-06
-2.73442e-06
-1.20697e-06
-3.78027e-06
-1.07753e-06
-5.02045e-06
-9.98032e-07
-6.992e-06
-7.10395e-07
-9.69329e-06
-1.13837e-05
-2.21312e-07
6.49357e-06
-4.42179e-07
7.39703e-06
-6.16251e-07
7.26803e-06
-7.27856e-07
6.36339e-06
-7.98315e-07
5.0478e-06
-8.64072e-07
3.85533e-06
-9.32861e-07
2.92117e-06
-9.94444e-07
2.15894e-06
-1.04112e-06
1.48323e-06
-1.06976e-06
8.47653e-07
-1.0783e-06
2.20514e-07
-1.06642e-06
-4.27813e-07
-1.03261e-06
-1.12991e-06
-9.68963e-07
-1.92585e-06
-8.77415e-07
-2.82596e-06
-7.57943e-07
-3.89974e-06
-6.76318e-07
-5.10207e-06
-6.37017e-07
-7.03131e-06
-5.46612e-07
-9.78369e-06
-1.19303e-05
2.36304e-08
6.46994e-06
-5.56642e-08
7.47632e-06
-1.17982e-07
7.33034e-06
-1.61708e-07
6.40711e-06
-2.0662e-07
5.09271e-06
-2.65137e-07
3.91384e-06
-3.23225e-07
2.97926e-06
-3.72383e-07
2.20809e-06
-4.11091e-07
1.52194e-06
-4.39255e-07
8.75817e-07
-4.57448e-07
2.38707e-07
-4.65765e-07
-4.19496e-07
-4.66817e-07
-1.12886e-06
-4.49676e-07
-1.94299e-06
-4.21885e-07
-2.85375e-06
-3.70452e-07
-3.95118e-06
-3.61263e-07
-5.11126e-06
-3.86965e-07
-7.0056e-06
-4.07872e-07
-9.76278e-06
-1.23382e-05
2.18568e-07
6.25137e-06
3.40804e-07
7.35409e-06
4.16777e-07
7.25437e-06
4.07365e-07
6.41653e-06
3.75529e-07
5.12455e-06
3.28799e-07
3.96057e-06
2.84427e-07
3.02363e-06
2.48025e-07
2.2445e-06
2.17156e-07
1.55281e-06
1.89016e-07
9.03957e-07
1.60588e-07
2.67135e-07
1.30802e-07
-3.89709e-07
1.01544e-07
-1.0996e-06
5.30385e-08
-1.89449e-06
5.39716e-08
-2.85469e-06
-2.66069e-08
-3.8706e-06
-1.22701e-08
-5.1256e-06
-1.75014e-07
-6.84286e-06
-3.11286e-07
-9.62651e-06
-1.26494e-05
4.32003e-07
5.81937e-06
7.08831e-07
7.07726e-06
9.08524e-07
7.05468e-06
9.61365e-07
6.36368e-06
9.54063e-07
5.13185e-06
9.26345e-07
3.98829e-06
9.02733e-07
3.04724e-06
8.84283e-07
2.26295e-06
8.64122e-07
1.57297e-06
8.36958e-07
9.31121e-07
7.98166e-07
3.05927e-07
7.47039e-07
-3.38582e-07
6.7914e-07
-1.0317e-06
6.05275e-07
-1.82062e-06
4.96823e-07
-2.74624e-06
3.99854e-07
-3.77363e-06
2.48151e-07
-4.97389e-06
-2.07348e-08
-6.57397e-06
-2.02672e-07
-9.44458e-06
-1.28521e-05
6.17908e-07
5.20146e-06
1.07163e-06
6.62353e-06
1.40554e-06
6.72077e-06
1.55934e-06
6.20988e-06
1.59617e-06
5.09502e-06
1.59348e-06
3.99098e-06
1.58686e-06
3.05387e-06
1.58006e-06
2.26974e-06
1.56495e-06
1.58808e-06
1.53507e-06
9.61002e-07
1.48359e-06
3.5741e-07
1.40922e-06
-2.64217e-07
1.30806e-06
-9.30544e-07
1.1834e-06
-1.69596e-06
1.00479e-06
-2.56763e-06
8.34479e-07
-3.60332e-06
5.55696e-07
-4.69511e-06
2.38146e-07
-6.25642e-06
-3.32925e-08
-9.17314e-06
-1.28854e-05
7.86385e-07
4.41508e-06
1.39853e-06
6.01138e-06
1.85671e-06
6.26259e-06
2.14455e-06
5.92204e-06
2.25738e-06
4.98218e-06
2.30198e-06
3.94639e-06
2.32556e-06
3.03028e-06
2.33918e-06
2.25612e-06
2.33582e-06
1.59145e-06
2.30903e-06
9.87794e-07
2.24944e-06
4.16994e-07
2.15412e-06
-1.68894e-07
2.01672e-06
-7.9314e-07
1.83681e-06
-1.51605e-06
1.58896e-06
-2.31978e-06
1.30937e-06
-3.32372e-06
9.04701e-07
-4.29044e-06
4.92674e-07
-5.8444e-06
1.08041e-07
-8.7885e-06
-1.27774e-05
8.72601e-07
3.54248e-06
1.66618e-06
5.21781e-06
2.29364e-06
5.63513e-06
2.75589e-06
5.45979e-06
3.00836e-06
4.72972e-06
3.14101e-06
3.81374e-06
3.21184e-06
2.95946e-06
3.24962e-06
2.21834e-06
3.25568e-06
1.58538e-06
3.22867e-06
1.0148e-06
3.15738e-06
4.88286e-07
3.0323e-06
-4.38158e-08
2.84852e-06
-6.09358e-07
2.60541e-06
-1.27294e-06
2.26838e-06
-1.98276e-06
1.85288e-06
-2.90822e-06
1.30707e-06
-3.74463e-06
7.63315e-07
-5.30065e-06
2.55702e-07
-8.28089e-06
-1.25217e-05
9.07134e-07
2.63534e-06
1.77689e-06
4.34806e-06
2.56398e-06
4.84804e-06
3.22246e-06
4.80131e-06
3.67907e-06
4.2731e-06
3.97042e-06
3.52239e-06
4.14757e-06
2.78231e-06
4.25038e-06
2.11553e-06
4.29252e-06
1.54325e-06
4.28047e-06
1.02684e-06
4.20159e-06
5.67174e-07
4.06591e-06
9.18648e-08
3.83276e-06
-3.76212e-07
3.51697e-06
-9.57147e-07
3.06539e-06
-1.53118e-06
2.47689e-06
-2.31972e-06
1.75888e-06
-3.02663e-06
1.05114e-06
-4.5929e-06
4.2008e-07
-7.64983e-06
-1.21016e-05
6.89449e-07
1.94589e-06
1.72414e-06
3.31336e-06
2.70939e-06
3.8628e-06
3.60313e-06
3.90756e-06
4.3202e-06
3.55603e-06
4.83885e-06
3.00374e-06
5.18951e-06
2.43165e-06
5.41272e-06
1.89232e-06
5.52252e-06
1.43345e-06
5.551e-06
9.98355e-07
5.47838e-06
6.39792e-07
5.317e-06
2.53249e-07
5.01052e-06
-6.97333e-08
4.60107e-06
-5.47695e-07
3.99907e-06
-9.29177e-07
3.22085e-06
-1.5415e-06
2.3308e-06
-2.13658e-06
1.45918e-06
-3.72128e-06
6.21864e-07
-6.81252e-06
-1.14797e-05
2.18729e-07
1.72717e-06
1.17034e-06
2.36175e-06
2.29938e-06
2.73376e-06
3.44282e-06
2.76412e-06
4.44786e-06
2.55099e-06
5.24957e-06
2.20203e-06
5.83335e-06
1.84787e-06
6.24232e-06
1.48334e-06
6.48253e-06
1.19325e-06
6.59393e-06
8.86955e-07
6.5602e-06
6.7352e-07
6.41825e-06
3.95196e-07
6.14187e-06
2.06651e-07
5.70868e-06
-1.14509e-07
5.08198e-06
-3.02478e-07
4.29886e-06
-7.58379e-07
3.39842e-06
-1.23613e-06
2.43155e-06
-2.75441e-06
1.14767e-06
-5.52865e-06
-1.0332e-05
-5.22823e-07
2.24999e-06
3.55436e-07
1.48349e-06
1.77857e-06
1.31063e-06
3.22818e-06
1.31451e-06
4.49229e-06
1.28689e-06
5.53084e-06
1.16347e-06
6.35372e-06
1.025e-06
6.98414e-06
8.52926e-07
7.44932e-06
7.28072e-07
7.75231e-06
5.83957e-07
7.94498e-06
4.80848e-07
7.99076e-06
3.49419e-07
7.94203e-06
2.55387e-07
7.71412e-06
1.13396e-07
7.39594e-06
1.56991e-08
6.91355e-06
-2.75985e-07
6.25628e-06
-5.7886e-07
5.1202e-06
-1.61834e-06
2.83238e-06
-3.24082e-06
-7.49967e-06
2.24999e-06
3.73348e-06
5.04411e-06
6.35862e-06
7.6455e-06
8.80897e-06
9.83397e-06
1.06869e-05
1.1415e-05
1.19989e-05
1.24798e-05
1.28292e-05
1.30846e-05
1.3198e-05
1.32137e-05
1.29377e-05
1.23588e-05
1.07405e-05
7.49967e-06
)
;

boundaryField
{
    movingWall
    {
        type            calculated;
        value           uniform 0;
    }
    fixedWalls
    {
        type            calculated;
        value           uniform 0;
    }
    frontAndBack
    {
        type            empty;
        value           nonuniform 0();
    }
}


// ************************************************************************* //
