/*--------------------------------*- C++ -*----------------------------------*\
| =========                 |                                                 |
| \\      /  F ield         | OpenFOAM: The Open Source CFD Toolbox           |
|  \\    /   O peration     | Version:  4.1                                   |
|   \\  /    A nd           | Web:      www.OpenFOAM.org                      |
|    \\/     M anipulation  |                                                 |
\*---------------------------------------------------------------------------*/
FoamFile
{
    version     2.0;
    format      ascii;
    class       volVectorField;
    location    "6.5";
    object      U;
}
// * * * * * * * * * * * * * * * * * * * * * * * * * * * * * * * * * * * * * //

dimensions      [0 1 -1 0 0 0 0];

internalField   nonuniform List<vector> 
400
(
(0.00157015 -0.00304914 0)
(-0.00292628 0.00204397 0)
(-0.0153837 0.00797436 0)
(-0.040568 0.0139626 0)
(-0.0702647 0.0152367 0)
(-0.0980956 0.0138798 0)
(-0.122511 0.0119752 0)
(-0.142001 0.00973807 0)
(-0.157149 0.00773237 0)
(-0.168186 0.0054884 0)
(-0.175399 0.00350207 0)
(-0.17862 0.00155637 0)
(-0.178682 -0.00128789 0)
(-0.172421 -0.00379654 0)
(-0.161471 -0.00765694 0)
(-0.142652 -0.0116863 0)
(-0.116957 -0.0163816 0)
(-0.0834188 -0.0194918 0)
(-0.0473449 -0.01837 0)
(-0.0153429 -0.0102996 0)
(-0.00495172 0.00467544 0)
(-0.0200347 0.0185244 0)
(-0.0445668 0.0326477 0)
(-0.0738384 0.0397825 0)
(-0.101802 0.0401003 0)
(-0.125489 0.0366653 0)
(-0.144155 0.03131 0)
(-0.157864 0.0255454 0)
(-0.169788 0.0182167 0)
(-0.176968 0.0125995 0)
(-0.181802 0.00645554 0)
(-0.182427 0.000975082 0)
(-0.180153 -0.00558271 0)
(-0.173862 -0.0128223 0)
(-0.163187 -0.0221814 0)
(-0.146584 -0.033257 0)
(-0.123488 -0.0462009 0)
(-0.0928636 -0.0577432 0)
(-0.0578875 -0.0602425 0)
(-0.0208182 -0.0455783 0)
(-0.0103235 0.0238866 0)
(-0.0327946 0.0437351 0)
(-0.0605674 0.0587697 0)
(-0.087498 0.0643626 0)
(-0.110133 0.0618581 0)
(-0.126846 0.0542862 0)
(-0.138587 0.0440836 0)
(-0.147929 0.0333004 0)
(-0.152724 0.0244448 0)
(-0.15414 0.0154006 0)
(-0.154571 0.00714649 0)
(-0.153154 -0.0013842 0)
(-0.151407 -0.0102697 0)
(-0.146015 -0.0206356 0)
(-0.138835 -0.0334378 0)
(-0.1269 -0.0499312 0)
(-0.11025 -0.0700212 0)
(-0.0860114 -0.0910545 0)
(-0.0570955 -0.101936 0)
(-0.0217005 -0.0904887 0)
(-0.0127922 0.0474037 0)
(-0.0378026 0.0694358 0)
(-0.0639427 0.0825412 0)
(-0.0863618 0.0847767 0)
(-0.102023 0.0779079 0)
(-0.111309 0.0654825 0)
(-0.116178 0.0518691 0)
(-0.117421 0.0387438 0)
(-0.116639 0.0269021 0)
(-0.117269 0.0162245 0)
(-0.11622 0.00682628 0)
(-0.11537 -0.00246407 0)
(-0.11308 -0.0120478 0)
(-0.110032 -0.0234537 0)
(-0.10533 -0.0377859 0)
(-0.0988378 -0.0570531 0)
(-0.0884472 -0.0824114 0)
(-0.0710226 -0.112246 0)
(-0.0497372 -0.132408 0)
(-0.0193111 -0.128525 0)
(-0.0124322 0.0706037 0)
(-0.0351836 0.0921074 0)
(-0.0578361 0.102443 0)
(-0.0743056 0.100524 0)
(-0.0832416 0.0883528 0)
(-0.0862053 0.0716038 0)
(-0.0867431 0.0548964 0)
(-0.086527 0.0398656 0)
(-0.086544 0.0272537 0)
(-0.086394 0.0160905 0)
(-0.0855723 0.00600365 0)
(-0.0843524 -0.0039154 0)
(-0.082199 -0.0142243 0)
(-0.0794628 -0.0261175 0)
(-0.0759475 -0.0408802 0)
(-0.0718024 -0.0606647 0)
(-0.0664468 -0.0883817 0)
(-0.0537328 -0.126303 0)
(-0.0402599 -0.155865 0)
(-0.0162591 -0.160207 0)
(-0.00986163 0.0915557 0)
(-0.0293678 0.112914 0)
(-0.0468031 0.118857 0)
(-0.0583016 0.11161 0)
(-0.0626183 0.0940985 0)
(-0.0630058 0.0737429 0)
(-0.0632904 0.05519 0)
(-0.0638298 0.0396829 0)
(-0.0646146 0.0268569 0)
(-0.0649606 0.0153591 0)
(-0.0648369 0.00466518 0)
(-0.0638885 -0.00614827 0)
(-0.0620523 -0.017606 0)
(-0.0592554 -0.0304625 0)
(-0.0555918 -0.0456669 0)
(-0.0513429 -0.0649957 0)
(-0.0485809 -0.0915529 0)
(-0.0389195 -0.132841 0)
(-0.0340691 -0.172954 0)
(-0.00932846 -0.185274 0)
(-0.00763118 0.108913 0)
(-0.0219424 0.127984 0)
(-0.0343813 0.130167 0)
(-0.0422449 0.118582 0)
(-0.0440511 0.0969829 0)
(-0.0442337 0.0745429 0)
(-0.0452859 0.0555286 0)
(-0.0465382 0.0402313 0)
(-0.0477825 0.0273254 0)
(-0.0485168 0.0155592 0)
(-0.048724 0.00427628 0)
(-0.0481 -0.00734766 0)
(-0.0466279 -0.0198675 0)
(-0.0442361 -0.0339133 0)
(-0.0409959 -0.0501733 0)
(-0.0364077 -0.0701333 0)
(-0.0351642 -0.0954978 0)
(-0.0256503 -0.136191 0)
(-0.0272612 -0.184762 0)
(-0.00636648 -0.205587 0)
(-0.00443974 0.121014 0)
(-0.0140842 0.139736 0)
(-0.0228772 0.139277 0)
(-0.0278531 0.123691 0)
(-0.0285376 0.0991243 0)
(-0.0290797 0.0754544 0)
(-0.0306561 0.0564859 0)
(-0.0321707 0.041315 0)
(-0.0334936 0.0281962 0)
(-0.0343156 0.016029 0)
(-0.0346364 0.00414236 0)
(-0.0343007 -0.00816963 0)
(-0.0332763 -0.02149 0)
(-0.0314926 -0.0364466 0)
(-0.0292702 -0.0534678 0)
(-0.0246193 -0.0741139 0)
(-0.0254863 -0.0987827 0)
(-0.0158841 -0.138862 0)
(-0.0227786 -0.191487 0)
(-0.00206482 -0.221337 0)
(-0.002396 0.128762 0)
(-0.00703314 0.145893 0)
(-0.0120645 0.143625 0)
(-0.0149049 0.126162 0)
(-0.0151606 0.100121 0)
(-0.0160969 0.0763421 0)
(-0.0178206 0.0576823 0)
(-0.0192543 0.0425331 0)
(-0.0204267 0.0291556 0)
(-0.0211949 0.0165953 0)
(-0.0215853 0.00421742 0)
(-0.021547 -0.00861623 0)
(-0.0210706 -0.0225273 0)
(-0.0199457 -0.038246 0)
(-0.0192091 -0.055953 0)
(-0.0144624 -0.0772255 0)
(-0.0176218 -0.101261 0)
(-0.00762022 -0.14047 0)
(-0.0189347 -0.194725 0)
(0.000216749 -0.233891 0)
(0.00119867 0.130619 0)
(-0.000364631 0.150214 0)
(-0.00239588 0.147276 0)
(-0.00340199 0.128369 0)
(-0.00347242 0.101842 0)
(-0.00439479 0.0778715 0)
(-0.00582627 0.0590786 0)
(-0.00695279 0.0436976 0)
(-0.00787684 0.0300415 0)
(-0.00854896 0.0171844 0)
(-0.00901294 0.00450047 0)
(-0.00927332 -0.00862523 0)
(-0.00942211 -0.0228232 0)
(-0.00882359 -0.03897 0)
(-0.00993812 -0.0572591 0)
(-0.00532414 -0.0787168 0)
(-0.0113484 -0.102928 0)
(-0.000989132 -0.140396 0)
(-0.0165228 -0.19576 0)
(0.003151 -0.243371 0)
(0.00314432 0.128394 0)
(0.00543756 0.149026 0)
(0.00707605 0.146138 0)
(0.00772166 0.127976 0)
(0.00803315 0.101753 0)
(0.00732727 0.0783773 0)
(0.00619338 0.0598215 0)
(0.00533855 0.0444355 0)
(0.00464085 0.030702 0)
(0.00405827 0.0177471 0)
(0.0034991 0.00497477 0)
(0.00295989 -0.00822889 0)
(0.00213064 -0.022479 0)
(0.00224962 -0.0386742 0)
(-0.00055051 -0.0575568 0)
(0.0034868 -0.078535 0)
(-0.00524993 -0.103171 0)
(0.00541913 -0.138158 0)
(-0.0145964 -0.194573 0)
(0.00523921 -0.250313 0)
(0.00548558 0.122839 0)
(0.0114326 0.146555 0)
(0.0155883 0.144981 0)
(0.0182643 0.128901 0)
(0.0192618 0.10319 0)
(0.019086 0.0798402 0)
(0.0184164 0.0609097 0)
(0.0179313 0.0451905 0)
(0.017522 0.0313095 0)
(0.0170666 0.0183445 0)
(0.016393 0.00566589 0)
(0.0155929 -0.00741338 0)
(0.0141137 -0.0215252 0)
(0.013589 -0.0374501 0)
(0.00956188 -0.0563916 0)
(0.0123537 -0.0771624 0)
(0.00121255 -0.101475 0)
(0.0114706 -0.134611 0)
(-0.0134026 -0.191349 0)
(0.00836361 -0.254617 0)
(0.00738018 0.111986 0)
(0.0167859 0.137913 0)
(0.0245525 0.137899 0)
(0.0290091 0.126036 0)
(0.0315917 0.101581 0)
(0.0321671 0.0791163 0)
(0.0319843 0.060522 0)
(0.0317727 0.0450164 0)
(0.0315232 0.031418 0)
(0.0311158 0.0187924 0)
(0.0302228 0.00652127 0)
(0.0292207 -0.00615972 0)
(0.0269121 -0.0198219 0)
(0.0259436 -0.0354517 0)
(0.0204356 -0.0535348 0)
(0.0220378 -0.0744324 0)
(0.00860784 -0.0969039 0)
(0.0175905 -0.128796 0)
(-0.0115495 -0.185799 0)
(0.011781 -0.25683 0)
(0.009751 0.098794 0)
(0.0215858 0.129593 0)
(0.0326855 0.132402 0)
(0.0392185 0.123503 0)
(0.0438683 0.102328 0)
(0.0457666 0.0801459 0)
(0.0464563 0.0612681 0)
(0.0467929 0.0455242 0)
(0.0468459 0.031976 0)
(0.0466579 0.0195958 0)
(0.0455621 0.00776656 0)
(0.0445517 -0.00437833 0)
(0.0413006 -0.0173609 0)
(0.0399607 -0.03229 0)
(0.0327673 -0.0491495 0)
(0.0331225 -0.0695994 0)
(0.0170068 -0.0900976 0)
(0.0238374 -0.121875 0)
(-0.00924132 -0.180071 0)
(0.0163077 -0.257636 0)
(0.0103855 0.080284 0)
(0.025447 0.11264 0)
(0.0398554 0.119529 0)
(0.0497815 0.114215 0)
(0.0572164 0.097432 0)
(0.0614232 0.0774516 0)
(0.0635795 0.0594744 0)
(0.0647796 0.0442685 0)
(0.0651269 0.031342 0)
(0.0652171 0.0197114 0)
(0.0637186 0.00881168 0)
(0.0627007 -0.00242052 0)
(0.0582605 -0.0141507 0)
(0.0563701 -0.0278881 0)
(0.0473374 -0.0429685 0)
(0.0460163 -0.0621984 0)
(0.0267188 -0.0803868 0)
(0.0308225 -0.112112 0)
(-0.00669535 -0.172132 0)
(0.0212409 -0.257955 0)
(0.0118316 0.0638205 0)
(0.0266863 0.0993462 0)
(0.0435503 0.108796 0)
(0.057375 0.106475 0)
(0.0683234 0.0937747 0)
(0.0760752 0.0764197 0)
(0.0809713 0.0595952 0)
(0.0841661 0.0447965 0)
(0.0853842 0.032339 0)
(0.0864003 0.021251 0)
(0.0845584 0.0112259 0)
(0.0838056 0.000937968 0)
(0.0783206 -0.00932159 0)
(0.0757815 -0.0217113 0)
(0.0649101 -0.0345805 0)
(0.0607474 -0.0519811 0)
(0.0377827 -0.0677774 0)
(0.0386316 -0.100535 0)
(-0.00443162 -0.163788 0)
(0.0271729 -0.25647 0)
(0.00511079 0.0403774 0)
(0.0251322 0.0733783 0)
(0.0449604 0.0861282 0)
(0.0626594 0.0876134 0)
(0.0784125 0.0797666 0)
(0.0908478 0.0670982 0)
(0.0996306 0.0537631 0)
(0.106288 0.0411185 0)
(0.109046 0.0299929 0)
(0.111831 0.0200382 0)
(0.109801 0.0113286 0)
(0.109504 0.00253459 0)
(0.102589 -0.00570837 0)
(0.098835 -0.0157636 0)
(0.0856172 -0.0251585 0)
(0.0775183 -0.0389335 0)
(0.0510237 -0.0522285 0)
(0.0487978 -0.0857619 0)
(-0.000918454 -0.151001 0)
(0.0350912 -0.247267 0)
(-0.00194765 0.0434431 0)
(0.0126713 0.0644676 0)
(0.0355624 0.0728345 0)
(0.0574102 0.0732276 0)
(0.0777037 0.067229 0)
(0.0964058 0.0577002 0)
(0.109766 0.0478408 0)
(0.121398 0.0386087 0)
(0.126431 0.0308316 0)
(0.13206 0.0227187 0)
(0.131024 0.0164965 0)
(0.131589 0.00906379 0)
(0.124934 0.00371851 0)
(0.120682 -0.00416863 0)
(0.107156 -0.00981456 0)
(0.0980433 -0.0207339 0)
(0.0719848 -0.0328884 0)
(0.0685534 -0.066671 0)
(0.0129304 -0.127899 0)
(0.0510014 -0.217118 0)
(-0.00819359 0.0112487 0)
(-0.00778228 0.0160855 0)
(0.021357 0.0265421 0)
(0.0505982 0.0317114 0)
(0.0759628 0.0321672 0)
(0.0999931 0.0291065 0)
(0.11766 0.0253421 0)
(0.134035 0.0201009 0)
(0.143875 0.016432 0)
(0.153093 0.0120607 0)
(0.156757 0.00942649 0)
(0.160307 0.00547827 0)
(0.159058 0.00335389 0)
(0.157329 -0.00146102 0)
(0.149933 -0.00392372 0)
(0.144414 -0.0113696 0)
(0.127142 -0.0187006 0)
(0.120077 -0.044425 0)
(0.0616286 -0.08746 0)
(0.0878116 -0.159189 0)
(0.0475795 0.098001 0)
(0.0532295 0.057847 0)
(0.0870398 0.0358736 0)
(0.115165 0.0271137 0)
(0.139497 0.0231343 0)
(0.164302 0.0201106 0)
(0.185523 0.0178125 0)
(0.205404 0.015619 0)
(0.22101 0.0139094 0)
(0.234848 0.0123777 0)
(0.244918 0.0109628 0)
(0.253679 0.00982213 0)
(0.259007 0.00832041 0)
(0.263195 0.00725497 0)
(0.26369 0.00510426 0)
(0.26104 0.00259064 0)
(0.252295 0.000741465 0)
(0.236245 -0.00829339 0)
(0.180897 -0.0206826 0)
(0.168812 -0.116549 0)
)
;

boundaryField
{
    movingWall
    {
        type            fixedValue;
        value           uniform (1 0 0);
    }
    fixedWalls
    {
        type            noSlip;
    }
    frontAndBack
    {
        type            empty;
    }
}


// ************************************************************************* //
