/*--------------------------------*- C++ -*----------------------------------*\
| =========                 |                                                 |
| \\      /  F ield         | OpenFOAM: The Open Source CFD Toolbox           |
|  \\    /   O peration     | Version:  4.1                                   |
|   \\  /    A nd           | Web:      www.OpenFOAM.org                      |
|    \\/     M anipulation  |                                                 |
\*---------------------------------------------------------------------------*/
FoamFile
{
    version     2.0;
    format      ascii;
    class       volScalarField;
    location    "3.5";
    object      epsilon;
}
// * * * * * * * * * * * * * * * * * * * * * * * * * * * * * * * * * * * * * //

dimensions      [0 2 -3 0 0 0 0];

internalField   nonuniform List<scalar> 
400
(
6.59645e-05
0.000240509
0.00108041
0.00294034
0.0052693
0.0071135
0.0083112
0.00894404
0.00920656
0.00926146
0.00898896
0.00853025
0.0079117
0.00723345
0.00659065
0.00592592
0.00534379
0.0047846
0.00371042
0.0030146
0.000176224
0.000585421
0.00160494
0.00278489
0.00338457
0.0034739
0.00314365
0.00275821
0.00235204
0.00206447
0.00188006
0.00181683
0.00185565
0.00208362
0.0023921
0.00291915
0.0037313
0.00491689
0.00649199
0.0074117
0.000527654
0.00104536
0.00173141
0.00203721
0.00183789
0.00154748
0.00126312
0.00109907
0.001023
0.00099983
0.00101381
0.00108384
0.00118792
0.00136258
0.00165684
0.00218022
0.00310942
0.00475288
0.00776393
0.0121174
0.00101389
0.00123977
0.00150922
0.00140376
0.00109675
0.000876833
0.000759128
0.000710082
0.000695414
0.0006953
0.000723001
0.000758624
0.000818872
0.000921769
0.00112719
0.00154414
0.00240014
0.00413828
0.00802996
0.0155381
0.00146956
0.0012012
0.00123283
0.00100482
0.000735533
0.000601722
0.000534114
0.000500795
0.000485999
0.000482346
0.000495364
0.000520728
0.000563638
0.000643398
0.000809545
0.00117566
0.0019881
0.0037475
0.00804904
0.0183175
0.00187207
0.00111329
0.00101281
0.000757299
0.000551247
0.000455781
0.000402001
0.000365811
0.000348245
0.000342798
0.000352072
0.000376636
0.000413125
0.000476405
0.000608202
0.00091952
0.00168706
0.00349992
0.00805627
0.0206155
0.00234862
0.00101784
0.000844673
0.000608475
0.000446601
0.000369849
0.000318163
0.000278405
0.000259134
0.000253134
0.000262579
0.000288555
0.000323195
0.000375143
0.00047922
0.000738203
0.00144728
0.00329761
0.00816916
0.0226812
0.00278319
0.000944615
0.000722613
0.000519594
0.000384863
0.00031706
0.000263706
0.000220437
0.000199073
0.000192157
0.00020048
0.00022808
0.000264922
0.000311824
0.000395925
0.000608887
0.00125566
0.00313649
0.00839074
0.0246197
0.00327937
0.000884589
0.000634302
0.000461905
0.000347973
0.000284233
0.000228542
0.000183386
0.000160716
0.000153068
0.000159228
0.000185745
0.000227621
0.000278509
0.000351367
0.000522302
0.00109064
0.002983
0.00875903
0.0265701
0.00371601
0.000903025
0.000573652
0.000427102
0.000325041
0.00026217
0.000208273
0.000166354
0.000142855
0.000134643
0.000140298
0.000163308
0.000207765
0.000264353
0.000332205
0.000479372
0.000964966
0.0028322
0.00919329
0.0286269
0.00408619
0.000984869
0.000548827
0.000400219
0.000311225
0.000252845
0.000204748
0.000166198
0.000142446
0.000132714
0.000136271
0.000155694
0.000200643
0.000261447
0.00032756
0.000463447
0.000869438
0.00269046
0.00977651
0.0309183
0.00410694
0.00115692
0.000562122
0.000400089
0.000311165
0.000253652
0.000207603
0.000171142
0.000148123
0.000139812
0.000143808
0.000161062
0.000206208
0.000275473
0.000339497
0.00046237
0.00081602
0.00254658
0.0103036
0.0335724
0.00396788
0.00138203
0.000606457
0.000410774
0.000316895
0.000259074
0.000215435
0.000183309
0.000161546
0.000154353
0.00015852
0.000176452
0.000223138
0.00029711
0.000359881
0.000477376
0.000784217
0.0024508
0.0108704
0.0368004
0.00357038
0.00147543
0.000706987
0.000445034
0.000336888
0.000274895
0.000231679
0.000201222
0.000179222
0.000174594
0.000179948
0.000199647
0.000246717
0.000320242
0.000381393
0.000497364
0.000772001
0.00240997
0.0114039
0.0408623
0.00282626
0.00140748
0.000763495
0.000516792
0.000386776
0.000312689
0.000265278
0.000235412
0.00021367
0.000207495
0.00021232
0.000230189
0.000270678
0.000339206
0.00040043
0.00052015
0.000775416
0.00247815
0.0126583
0.0461735
0.00216488
0.00122108
0.000751403
0.000564469
0.000460936
0.000389196
0.000335149
0.000295039
0.000265101
0.000247182
0.000249382
0.000262938
0.000295194
0.000361775
0.000431606
0.000566406
0.000846939
0.00281489
0.0150306
0.0534196
0.00150123
0.000773263
0.000635834
0.000556624
0.000501599
0.000452969
0.000407753
0.000369777
0.000338019
0.000322923
0.000327741
0.000347468
0.000389935
0.000473493
0.000584593
0.000765111
0.00119563
0.00395072
0.0192942
0.0639714
0.00155526
0.000761111
0.000761582
0.000772996
0.000798785
0.000811641
0.000813327
0.000823673
0.000843848
0.000894382
0.000974285
0.00110005
0.00124535
0.00144344
0.00169225
0.00201353
0.0032079
0.00872705
0.0300737
0.0808341
0.00258604
0.00448923
0.00649822
0.00764966
0.00839647
0.00896694
0.00942404
0.00996977
0.0104826
0.0111999
0.0118672
0.0127902
0.0136018
0.0146419
0.0158135
0.0171392
0.0220761
0.0363248
0.07015
0.114673
0.0418443
0.085962
0.124154
0.14467
0.154709
0.159565
0.161761
0.163228
0.163907
0.16497
0.165387
0.166283
0.166486
0.167155
0.167851
0.169966
0.172754
0.176435
0.189386
0.160783
)
;

boundaryField
{
    movingWall
    {
        Cmu             0.09;
        kappa           0.41;
        E               9.8;
        type            epsilonWallFunction;
        value           nonuniform List<scalar> 
20
(
0.0418443
0.085962
0.124154
0.14467
0.154709
0.159565
0.161761
0.163228
0.163907
0.16497
0.165387
0.166283
0.166486
0.167155
0.167851
0.169966
0.172754
0.176435
0.189386
0.160783
)
;
    }
    fixedWalls
    {
        Cmu             0.09;
        kappa           0.41;
        E               9.8;
        type            epsilonWallFunction;
        value           nonuniform List<scalar> 
60
(
6.59645e-05
0.000176224
0.000527654
0.00101389
0.00146956
0.00187207
0.00234862
0.00278319
0.00327937
0.00371601
0.00408619
0.00410694
0.00396788
0.00357038
0.00282626
0.00216488
0.00150123
0.00155526
0.00258604
0.0418443
0.0030146
0.0074117
0.0121174
0.0155381
0.0183175
0.0206155
0.0226812
0.0246197
0.0265701
0.0286269
0.0309183
0.0335724
0.0368004
0.0408623
0.0461735
0.0534196
0.0639714
0.0808341
0.114673
0.160783
6.59645e-05
0.000240509
0.00108041
0.00294034
0.0052693
0.0071135
0.0083112
0.00894404
0.00920656
0.00926146
0.00898896
0.00853025
0.0079117
0.00723345
0.00659065
0.00592592
0.00534379
0.0047846
0.00371042
0.0030146
)
;
    }
    frontAndBack
    {
        type            empty;
    }
}


// ************************************************************************* //
