/*--------------------------------*- C++ -*----------------------------------*\
| =========                 |                                                 |
| \\      /  F ield         | OpenFOAM: The Open Source CFD Toolbox           |
|  \\    /   O peration     | Version:  4.1                                   |
|   \\  /    A nd           | Web:      www.OpenFOAM.org                      |
|    \\/     M anipulation  |                                                 |
\*---------------------------------------------------------------------------*/
FoamFile
{
    version     2.0;
    format      ascii;
    class       volScalarField;
    location    "3.5";
    object      k;
}
// * * * * * * * * * * * * * * * * * * * * * * * * * * * * * * * * * * * * * //

dimensions      [0 2 -2 0 0 0 0];

internalField   nonuniform List<scalar> 
400
(
5.55233e-05
0.000131642
0.00035798
0.000696687
0.00102683
0.00125369
0.00139066
0.00146036
0.00148882
0.00149475
0.00146535
0.0014151
0.00134588
0.00126782
0.00119156
0.00111004
0.00103613
0.000962541
0.000812381
0.00070733
0.000106993
0.000270375
0.000553437
0.000744644
0.000826754
0.0008277
0.000760399
0.000721468
0.00068098
0.000663148
0.000656402
0.000665807
0.000702156
0.00074975
0.000825369
0.000926524
0.00106004
0.00119159
0.00128646
0.00128859
0.000222117
0.000460418
0.000601591
0.000648943
0.000581354
0.000547846
0.000528783
0.000523774
0.000531897
0.000548243
0.000562696
0.000578234
0.000598373
0.000627355
0.000682205
0.000777179
0.000928492
0.00115228
0.00146827
0.00178835
0.000343172
0.00052256
0.000567304
0.000527793
0.00048601
0.000477116
0.000479499
0.000502179
0.000519316
0.000537628
0.000548203
0.00055493
0.000559323
0.00056995
0.000603601
0.000683306
0.00083624
0.00108381
0.00150287
0.00211082
0.00043905
0.000518162
0.000517897
0.000463667
0.000446881
0.000446104
0.000461842
0.000479904
0.000492397
0.000507084
0.000518608
0.00052978
0.000535652
0.000542591
0.000566806
0.000636182
0.000790486
0.00105482
0.00151359
0.00235559
0.000515558
0.00050821
0.000473612
0.000429968
0.000422453
0.000426748
0.000438985
0.000444821
0.000449344
0.000460687
0.0004775
0.000497183
0.000514
0.000528189
0.000551053
0.000612758
0.000764067
0.00104463
0.00154478
0.00254871
0.000599634
0.000488285
0.000439196
0.000407981
0.000405157
0.000409719
0.00041146
0.000403587
0.000399691
0.000402547
0.000420929
0.000448676
0.000478691
0.000505907
0.000536195
0.0005952
0.00074189
0.00103832
0.00158299
0.00271624
0.000671565
0.000467839
0.00041315
0.000391225
0.00039176
0.000392837
0.000382357
0.000359859
0.000343773
0.000338632
0.000351194
0.000384787
0.000429414
0.000473861
0.00051665
0.00057787
0.000719233
0.00102454
0.00163792
0.00286888
0.000749185
0.000446471
0.000391596
0.00037634
0.000378857
0.000375923
0.000355271
0.000321899
0.000293781
0.00028198
0.000284737
0.000318151
0.000376533
0.000440504
0.000499439
0.000566005
0.000695574
0.00100109
0.00169921
0.00301843
0.000814415
0.000441188
0.000376206
0.000359362
0.000363432
0.000358338
0.0003338
0.000297893
0.000264819
0.000249018
0.000248197
0.000273979
0.000334234
0.000417116
0.000491255
0.000561404
0.000675355
0.000971283
0.00176607
0.0031722
0.000867999
0.000447605
0.00036271
0.000345649
0.000349242
0.000344697
0.000322636
0.000289453
0.000259175
0.000239852
0.000237612
0.000256096
0.000310894
0.000406795
0.000489711
0.00056496
0.000656728
0.000933859
0.00183792
0.0033392
0.000871351
0.000464499
0.000362363
0.000329716
0.000331023
0.000329045
0.00031552
0.000288168
0.000261717
0.000242603
0.000240062
0.000252805
0.000301983
0.00040479
0.000497637
0.000577065
0.000641304
0.000889849
0.00190101
0.00352754
0.000851792
0.000491064
0.000366951
0.000326522
0.000314355
0.000309802
0.000300859
0.000284174
0.000265468
0.000248903
0.00024802
0.000260324
0.000306655
0.000412804
0.000506301
0.000586493
0.00062309
0.000840389
0.00195858
0.00375001
0.000794439
0.000497294
0.000380037
0.00033062
0.000313994
0.000304602
0.000295648
0.000283906
0.000269032
0.000256304
0.000257447
0.000272254
0.000319958
0.000422181
0.000509596
0.000589482
0.0005972
0.000787526
0.0020052
0.0040209
0.000679831
0.00048222
0.000385543
0.000342431
0.000320349
0.000309254
0.00029953
0.0002884
0.000275058
0.000266909
0.000270265
0.000288
0.000337043
0.000425599
0.000499746
0.000570885
0.000556919
0.000755251
0.00210262
0.00436192
0.00056877
0.000440981
0.000380452
0.000358148
0.000342509
0.000329602
0.000317333
0.000305155
0.000291229
0.000288547
0.000293085
0.000309697
0.000348091
0.000413046
0.000465597
0.000523166
0.000508836
0.000741983
0.00228025
0.00480688
0.000444853
0.000338204
0.000342307
0.000353941
0.000357377
0.000353693
0.000345528
0.000332638
0.000316535
0.000309897
0.000311993
0.00032174
0.000344494
0.000389448
0.00043228
0.000484254
0.000491209
0.000811542
0.00260045
0.00542037
0.000455212
0.000307163
0.000343663
0.000371182
0.000391664
0.000397591
0.000394155
0.000387112
0.000374751
0.000371825
0.000374582
0.000383962
0.000404584
0.000437924
0.000488128
0.000531014
0.000662521
0.00126862
0.00337919
0.00633506
0.000638697
0.000670683
0.000855533
0.000962408
0.0010375
0.00109675
0.00114321
0.0012001
0.00125331
0.00133157
0.00140673
0.00151263
0.00161038
0.00173369
0.00188076
0.00203706
0.00243787
0.00346773
0.00587131
0.00799799
0.0040853
0.00660211
0.00843494
0.00933878
0.00976445
0.00996661
0.0100568
0.010117
0.0101447
0.0101886
0.010206
0.0102434
0.0102521
0.0102802
0.010309
0.0103961
0.0105095
0.0106584
0.0111742
0.0100189
)
;

boundaryField
{
    movingWall
    {
        type            kqRWallFunction;
        value           nonuniform List<scalar> 
20
(
0.0040853
0.00660211
0.00843494
0.00933878
0.00976445
0.00996661
0.0100568
0.010117
0.0101447
0.0101886
0.010206
0.0102434
0.0102521
0.0102802
0.010309
0.0103961
0.0105095
0.0106584
0.0111742
0.0100189
)
;
    }
    fixedWalls
    {
        type            kqRWallFunction;
        value           nonuniform List<scalar> 
60
(
5.55233e-05
0.000106993
0.000222117
0.000343172
0.00043905
0.000515558
0.000599634
0.000671565
0.000749185
0.000814415
0.000867999
0.000871351
0.000851792
0.000794439
0.000679831
0.00056877
0.000444853
0.000455212
0.000638697
0.0040853
0.00070733
0.00128859
0.00178835
0.00211082
0.00235559
0.00254871
0.00271624
0.00286888
0.00301843
0.0031722
0.0033392
0.00352754
0.00375001
0.0040209
0.00436192
0.00480688
0.00542037
0.00633506
0.00799799
0.0100189
5.55233e-05
0.000131642
0.00035798
0.000696687
0.00102683
0.00125369
0.00139066
0.00146036
0.00148882
0.00149475
0.00146535
0.0014151
0.00134588
0.00126782
0.00119156
0.00111004
0.00103613
0.000962541
0.000812381
0.00070733
)
;
    }
    frontAndBack
    {
        type            empty;
    }
}


// ************************************************************************* //
