/*--------------------------------*- C++ -*----------------------------------*\
| =========                 |                                                 |
| \\      /  F ield         | OpenFOAM: The Open Source CFD Toolbox           |
|  \\    /   O peration     | Version:  4.1                                   |
|   \\  /    A nd           | Web:      www.OpenFOAM.org                      |
|    \\/     M anipulation  |                                                 |
\*---------------------------------------------------------------------------*/
FoamFile
{
    version     2.0;
    format      ascii;
    class       volScalarField;
    location    "3.5";
    object      nut;
}
// * * * * * * * * * * * * * * * * * * * * * * * * * * * * * * * * * * * * * //

dimensions      [0 2 -1 0 0 0 0];

internalField   nonuniform List<scalar> 
400
(
4.20614e-06
6.48486e-06
1.06751e-05
1.48566e-05
1.8009e-05
1.98858e-05
2.09422e-05
2.14601e-05
2.16685e-05
2.1712e-05
2.14989e-05
2.11278e-05
2.06056e-05
1.99991e-05
1.93886e-05
1.87138e-05
1.8081e-05
1.74275e-05
1.60081e-05
1.49368e-05
5.84645e-06
1.12385e-05
1.7176e-05
1.79197e-05
1.81757e-05
1.77489e-05
1.65536e-05
1.69843e-05
1.77446e-05
1.91715e-05
2.06258e-05
2.19596e-05
2.39119e-05
2.42804e-05
2.56307e-05
2.64666e-05
2.71038e-05
2.59901e-05
2.29433e-05
2.01629e-05
8.41502e-06
1.82509e-05
1.88125e-05
1.86045e-05
1.65502e-05
1.74556e-05
1.99229e-05
2.2465e-05
2.48898e-05
2.70559e-05
2.81083e-05
2.77643e-05
2.71269e-05
2.5996e-05
2.52808e-05
2.49336e-05
2.49528e-05
2.51423e-05
2.49904e-05
2.37541e-05
1.04538e-05
1.98233e-05
1.91921e-05
1.78599e-05
1.93832e-05
2.33654e-05
2.72585e-05
3.19633e-05
3.49029e-05
3.74139e-05
3.74099e-05
3.65336e-05
3.43836e-05
3.17171e-05
2.90902e-05
2.72137e-05
2.62221e-05
2.55462e-05
2.53145e-05
2.58075e-05
1.18055e-05
2.01169e-05
1.95806e-05
1.9256e-05
2.44357e-05
2.97659e-05
3.59415e-05
4.13896e-05
4.48991e-05
4.79782e-05
4.88649e-05
4.8509e-05
4.5815e-05
4.1182e-05
3.57166e-05
3.0983e-05
2.82873e-05
2.67211e-05
2.56163e-05
2.72632e-05
1.27784e-05
2.08794e-05
1.99323e-05
2.19709e-05
2.91375e-05
3.59607e-05
4.31434e-05
4.86806e-05
5.21813e-05
5.57207e-05
5.82851e-05
5.9068e-05
5.75555e-05
5.27042e-05
4.49347e-05
3.67501e-05
3.1144e-05
2.80616e-05
2.66588e-05
2.83589e-05
1.37785e-05
2.10819e-05
2.05527e-05
2.46195e-05
3.30803e-05
4.08499e-05
4.78902e-05
5.2655e-05
5.54841e-05
5.76137e-05
6.07294e-05
6.27882e-05
6.381e-05
6.14026e-05
5.39949e-05
4.31909e-05
3.42271e-05
2.94243e-05
2.76071e-05
2.92762e-05
1.4584e-05
2.08536e-05
2.12595e-05
2.65114e-05
3.58902e-05
4.38052e-05
4.98954e-05
5.28716e-05
5.34286e-05
5.37081e-05
5.53687e-05
5.84246e-05
6.26435e-05
6.48089e-05
6.06767e-05
4.93589e-05
3.70775e-05
3.012e-05
2.87759e-05
3.00873e-05
1.54039e-05
2.02809e-05
2.17582e-05
2.75963e-05
3.71234e-05
4.47473e-05
4.97044e-05
5.0853e-05
4.83315e-05
4.67515e-05
4.58259e-05
4.90447e-05
5.60577e-05
6.27053e-05
6.38919e-05
5.52027e-05
3.99251e-05
3.02369e-05
2.96675e-05
3.08611e-05
1.60641e-05
1.93995e-05
2.22047e-05
2.7213e-05
3.65721e-05
4.40803e-05
4.81485e-05
4.80097e-05
4.4182e-05
4.14496e-05
3.9517e-05
4.13682e-05
4.8392e-05
5.9234e-05
6.53807e-05
5.91725e-05
4.25397e-05
2.99785e-05
3.05343e-05
3.16366e-05
1.65944e-05
1.83086e-05
2.15738e-05
2.68667e-05
3.52713e-05
4.22924e-05
4.57559e-05
4.53704e-05
4.24402e-05
3.90136e-05
3.72886e-05
3.79119e-05
4.33554e-05
5.69653e-05
6.58918e-05
6.19837e-05
4.46452e-05
2.91728e-05
3.10965e-05
3.24573e-05
1.66384e-05
1.67845e-05
2.10233e-05
2.44549e-05
3.16934e-05
3.84163e-05
4.31583e-05
4.36695e-05
4.16182e-05
3.78868e-05
3.60668e-05
3.57126e-05
3.98018e-05
5.35334e-05
6.56494e-05
6.48189e-05
4.53596e-05
2.79846e-05
3.15663e-05
3.33583e-05
1.6457e-05
1.57037e-05
1.99829e-05
2.33595e-05
2.80652e-05
3.33418e-05
3.78141e-05
3.96487e-05
3.92618e-05
3.61234e-05
3.49245e-05
3.45656e-05
3.79287e-05
5.16195e-05
6.41064e-05
6.48496e-05
4.45562e-05
2.59356e-05
3.17599e-05
3.43918e-05
1.59092e-05
1.50852e-05
1.83859e-05
2.21059e-05
2.63391e-05
3.03767e-05
3.39552e-05
3.60509e-05
3.6346e-05
3.3863e-05
3.31491e-05
3.34139e-05
3.73447e-05
5.00914e-05
6.12806e-05
6.28794e-05
4.15781e-05
2.31612e-05
3.17324e-05
3.56095e-05
1.47175e-05
1.48693e-05
1.75219e-05
2.04209e-05
2.38797e-05
2.75272e-05
3.04384e-05
3.17982e-05
3.18674e-05
3.09003e-05
3.09622e-05
3.24296e-05
3.77713e-05
4.80595e-05
5.61326e-05
5.63912e-05
3.59991e-05
2.07156e-05
3.14333e-05
3.70855e-05
1.34487e-05
1.4333e-05
1.73368e-05
2.04516e-05
2.29058e-05
2.5122e-05
2.70418e-05
2.84056e-05
2.8794e-05
3.03151e-05
3.10003e-05
3.28294e-05
3.69419e-05
4.24426e-05
4.52039e-05
4.34904e-05
2.75135e-05
1.76023e-05
3.11336e-05
3.89285e-05
1.18639e-05
1.33129e-05
1.65856e-05
2.02555e-05
2.29161e-05
2.48558e-05
2.63519e-05
2.69306e-05
2.66775e-05
2.67657e-05
2.67302e-05
2.68126e-05
2.73914e-05
2.88289e-05
2.87686e-05
2.75845e-05
1.81627e-05
1.50034e-05
3.15438e-05
4.13347e-05
1.19913e-05
1.11566e-05
1.3957e-05
1.60413e-05
1.72838e-05
1.75288e-05
1.71914e-05
1.63742e-05
1.49783e-05
1.39123e-05
1.29614e-05
1.20616e-05
1.18296e-05
1.19575e-05
1.26719e-05
1.26037e-05
1.23146e-05
1.65972e-05
3.41728e-05
4.46837e-05
1.4197e-05
9.0179e-06
1.01373e-05
1.08973e-05
1.15379e-05
1.2073e-05
1.24812e-05
1.30014e-05
1.34863e-05
1.42482e-05
1.50078e-05
1.61002e-05
1.71594e-05
1.84752e-05
2.01318e-05
2.17901e-05
2.42293e-05
2.97941e-05
4.42267e-05
5.02044e-05
3.58967e-05
4.56354e-05
5.15757e-05
5.42557e-05
5.54655e-05
5.60272e-05
5.62716e-05
5.64354e-05
5.65097e-05
5.66331e-05
5.66834e-05
5.67914e-05
5.68184e-05
5.69016e-05
5.69842e-05
5.72294e-05
5.75416e-05
5.79488e-05
5.93371e-05
5.61882e-05
)
;

boundaryField
{
    movingWall
    {
        type            nutkWallFunction;
        Cmu             0.09;
        kappa           0.41;
        E               9.8;
        value           nonuniform List<scalar> 
20
(
0
0
7.10358e-07
1.15169e-06
1.35102e-06
1.44392e-06
1.48503e-06
1.51235e-06
1.52488e-06
1.54472e-06
1.55257e-06
1.56939e-06
1.5733e-06
1.58591e-06
1.59886e-06
1.63777e-06
1.68819e-06
1.75391e-06
1.97755e-06
1.46779e-06
)
;
    }
    fixedWalls
    {
        type            nutkWallFunction;
        Cmu             0.09;
        kappa           0.41;
        E               9.8;
        value           nonuniform List<scalar> 
60
(
0
0
0
0
0
0
0
0
0
0
0
0
0
0
0
0
0
0
0
0
0
0
0
0
0
0
0
0
0
0
0
0
0
0
0
0
0
0
4.87199e-07
1.46779e-06
0
0
0
0
0
0
0
0
0
0
0
0
0
0
0
0
0
0
0
0
)
;
    }
    frontAndBack
    {
        type            empty;
    }
}


// ************************************************************************* //
