/*--------------------------------*- C++ -*----------------------------------*\
| =========                 |                                                 |
| \\      /  F ield         | OpenFOAM: The Open Source CFD Toolbox           |
|  \\    /   O peration     | Version:  4.1                                   |
|   \\  /    A nd           | Web:      www.OpenFOAM.org                      |
|    \\/     M anipulation  |                                                 |
\*---------------------------------------------------------------------------*/
FoamFile
{
    version     2.0;
    format      ascii;
    class       volScalarField;
    location    "3.5";
    object      p;
}
// * * * * * * * * * * * * * * * * * * * * * * * * * * * * * * * * * * * * * //

dimensions      [0 2 -2 0 0 0 0];

internalField   nonuniform List<scalar> 
400
(
5.39697e-08
-5.88757e-05
-0.000140531
-0.000308696
-0.000827332
-0.00174444
-0.00290575
-0.00405883
-0.00500297
-0.0056456
-0.00593353
-0.00582963
-0.00528741
-0.00423976
-0.00261997
-0.00042726
0.00218119
0.00475252
0.00652664
0.00701588
8.35012e-05
7.00813e-06
-0.000150214
-0.000516381
-0.0012501
-0.00231804
-0.0035146
-0.00462966
-0.00554082
-0.00614864
-0.00641071
-0.00631665
-0.00585415
-0.00496579
-0.00356299
-0.00160864
0.00082976
0.00341094
0.00541371
0.00621738
0.000113007
-6.63062e-05
-0.000433107
-0.0011232
-0.00216676
-0.00340863
-0.00462564
-0.00570984
-0.006568
-0.00709384
-0.00728697
-0.0071644
-0.00674433
-0.00601561
-0.00491869
-0.00335734
-0.0012906
0.00114379
0.00335479
0.00447701
-0.000131037
-0.00043132
-0.00106428
-0.00208275
-0.00338196
-0.00471664
-0.00592274
-0.00690449
-0.00758139
-0.00796237
-0.00806562
-0.00791357
-0.00753517
-0.00694825
-0.00612948
-0.00499402
-0.00341503
-0.00135659
0.000808148
0.00202322
-0.000742162
-0.00115012
-0.00198926
-0.00322878
-0.00463648
-0.00594993
-0.00705074
-0.00788742
-0.00843355
-0.0087096
-0.00873477
-0.00854379
-0.00818137
-0.007683
-0.0070562
-0.00625257
-0.00514051
-0.00357241
-0.00166532
-0.000512726
-0.00167491
-0.00214109
-0.00306909
-0.00438483
-0.00578162
-0.00700874
-0.00799276
-0.00871564
-0.00917144
-0.00937235
-0.00933604
-0.00910656
-0.00873726
-0.00827896
-0.00776045
-0.00716658
-0.00640805
-0.00529041
-0.00382827
-0.00275797
-0.00273746
-0.00320967
-0.00414735
-0.00544017
-0.00676921
-0.00790125
-0.0087965
-0.00944704
-0.00984478
-0.00999143
-0.00990242
-0.00962699
-0.00923258
-0.00878199
-0.00831525
-0.00783548
-0.00729642
-0.00650654
-0.00549421
-0.00455598
-0.00373285
-0.00418253
-0.00508893
-0.0063197
-0.00757721
-0.00863796
-0.00948019
-0.0100943
-0.0104617
-0.0105714
-0.0104336
-0.0101023
-0.00966304
-0.00919363
-0.00874008
-0.00831206
-0.00790206
-0.00732683
-0.00665998
-0.00585932
-0.004508
-0.00493169
-0.00579997
-0.00697559
-0.00818159
-0.00920171
-0.0100237
-0.0106305
-0.0109924
-0.0110838
-0.0109052
-0.0105098
-0.0100068
-0.00949663
-0.00902893
-0.00861024
-0.00827945
-0.00781162
-0.00737886
-0.00670723
-0.00501377
-0.00539168
-0.00622328
-0.00736761
-0.00853813
-0.00954703
-0.0103749
-0.010995
-0.0113688
-0.0114582
-0.0112504
-0.0107908
-0.0102165
-0.00965692
-0.00916302
-0.00872485
-0.00845769
-0.00799428
-0.00775984
-0.0071407
-0.00522502
-0.00557564
-0.00636257
-0.0074507
-0.0086101
-0.00962717
-0.010475
-0.0111168
-0.0115078
-0.0116019
-0.0113758
-0.0108647
-0.0102325
-0.00963355
-0.00911743
-0.00865814
-0.00844277
-0.00789561
-0.00788172
-0.00720134
-0.00516266
-0.00549495
-0.00621773
-0.00722164
-0.0083657
-0.00939943
-0.0102738
-0.0109399
-0.011347
-0.0114469
-0.0112141
-0.0106841
-0.0100264
-0.00940593
-0.00888024
-0.00842439
-0.00820602
-0.00757631
-0.007809
-0.00689725
-0.0049309
-0.00520617
-0.00585077
-0.00674667
-0.00781275
-0.00885219
-0.00974987
-0.0104406
-0.0108673
-0.0109813
-0.0107594
-0.0102415
-0.00959601
-0.00898511
-0.00847218
-0.00802624
-0.00779483
-0.0070854
-0.0075661
-0.00627446
-0.00465283
-0.00482173
-0.00531538
-0.00606487
-0.00700334
-0.00800138
-0.008907
-0.00962377
-0.0100807
-0.010228
-0.0100482
-0.0095842
-0.00899453
-0.0084262
-0.00794279
-0.00750708
-0.00726406
-0.00650214
-0.00715598
-0.00545601
-0.00440897
-0.00445361
-0.00473728
-0.0052739
-0.00603793
-0.00693843
-0.00782178
-0.00856096
-0.00906306
-0.0092706
-0.0091745
-0.0088174
-0.00832535
-0.00782289
-0.00737351
-0.00694272
-0.0066852
-0.0058665
-0.00664875
-0.00460844
-0.0042173
-0.004111
-0.00416227
-0.00445982
-0.00502755
-0.00580962
-0.0066607
-0.00743131
-0.00800341
-0.00830642
-0.00832466
-0.0081006
-0.00772354
-0.00729031
-0.00686667
-0.00642977
-0.00613105
-0.00520386
-0.00607433
-0.00357431
-0.00408491
-0.00383435
-0.00367845
-0.00374445
-0.00412765
-0.00480007
-0.00562266
-0.00642842
-0.00708241
-0.00749496
-0.00764343
-0.00754803
-0.00728172
-0.00690814
-0.00649468
-0.00603043
-0.00562616
-0.00447717
-0.00510478
-0.000876655
-0.00375068
-0.00345342
-0.00322
-0.0031175
-0.00338026
-0.00399703
-0.00482954
-0.00568594
-0.0064181
-0.00691925
-0.00716433
-0.00716452
-0.00697516
-0.00664035
-0.00620371
-0.00565159
-0.00499379
-0.00337231
-0.00225126
0.00704952
-0.00543729
-0.00425148
-0.0033966
-0.0028917
-0.00297801
-0.00354297
-0.00437954
-0.00527188
-0.00606684
-0.00665114
-0.00698758
-0.00706934
-0.0069357
-0.00662106
-0.00613743
-0.00531711
-0.00388357
-0.000830967
0.00417873
0.0213014
-0.00107571
0.000229727
-0.000557058
-0.00129004
-0.00200031
-0.00283613
-0.00379627
-0.0047761
-0.0056438
-0.00630448
-0.00669325
-0.00681188
-0.00665604
-0.00624389
-0.00545673
-0.00415872
-0.00170209
0.00360537
0.0134991
0.0323509
)
;

boundaryField
{
    movingWall
    {
        type            zeroGradient;
    }
    fixedWalls
    {
        type            zeroGradient;
    }
    frontAndBack
    {
        type            empty;
    }
}


// ************************************************************************* //
