/*--------------------------------*- C++ -*----------------------------------*\
| =========                 |                                                 |
| \\      /  F ield         | OpenFOAM: The Open Source CFD Toolbox           |
|  \\    /   O peration     | Version:  4.1                                   |
|   \\  /    A nd           | Web:      www.OpenFOAM.org                      |
|    \\/     M anipulation  |                                                 |
\*---------------------------------------------------------------------------*/
FoamFile
{
    version     2.0;
    format      ascii;
    class       surfaceScalarField;
    location    "3.5";
    object      phi;
}
// * * * * * * * * * * * * * * * * * * * * * * * * * * * * * * * * * * * * * //

dimensions      [0 3 -1 0 0 0 0];

internalField   nonuniform List<scalar> 
760
(
-5.53115e-09
5.52584e-09
-2.32664e-07
2.27133e-07
-8.13141e-07
5.80476e-07
-1.75518e-06
9.42044e-07
-2.8631e-06
1.10792e-06
-3.94624e-06
1.08314e-06
-4.89708e-06
9.50834e-07
-5.67456e-06
7.77485e-07
-6.24848e-06
5.73915e-07
-6.6587e-06
4.10226e-07
-6.89889e-06
2.40182e-07
-6.99308e-06
9.41972e-08
-6.92671e-06
-6.63782e-08
-6.6853e-06
-2.41402e-07
-6.22447e-06
-4.60839e-07
-5.46552e-06
-7.58945e-07
-4.34201e-06
-1.12351e-06
-2.85146e-06
-1.49055e-06
-1.21538e-06
-1.63608e-06
-1.21538e-06
-3.53956e-07
3.59482e-07
-1.05921e-06
9.32388e-07
-2.05897e-06
1.58023e-06
-3.17255e-06
2.05563e-06
-4.21987e-06
2.15524e-06
-5.11224e-06
1.97551e-06
-5.83125e-06
1.66985e-06
-6.37309e-06
1.31932e-06
-6.78338e-06
9.84202e-07
-7.04196e-06
6.68812e-07
-7.16227e-06
3.60487e-07
-7.13493e-06
6.68626e-08
-6.99528e-06
-2.06035e-07
-6.73079e-06
-5.05887e-07
-6.2949e-06
-8.96731e-07
-5.63486e-06
-1.41899e-06
-4.65633e-06
-2.10205e-06
-3.28947e-06
-2.8574e-06
-1.6032e-06
-3.32235e-06
-2.81858e-06
-7.14868e-07
1.07435e-06
-1.68153e-06
1.89905e-06
-2.73798e-06
2.63668e-06
-3.71669e-06
3.03433e-06
-4.51784e-06
2.95639e-06
-5.12644e-06
2.58411e-06
-5.57007e-06
2.11348e-06
-5.84685e-06
1.59609e-06
-5.99532e-06
1.13267e-06
-6.01955e-06
6.93046e-07
-5.97733e-06
3.18267e-07
-5.8843e-06
-2.61702e-08
-5.73505e-06
-3.55284e-07
-5.51973e-06
-7.21206e-07
-5.22823e-06
-1.18824e-06
-4.80766e-06
-1.83955e-06
-4.15145e-06
-2.75826e-06
-3.11577e-06
-3.89309e-06
-1.68079e-06
-4.75732e-06
-4.49937e-06
-8.87835e-07
1.96218e-06
-1.87759e-06
2.8888e-06
-2.81244e-06
3.57153e-06
-3.57176e-06
3.79366e-06
-4.10536e-06
3.48999e-06
-4.44532e-06
2.92406e-06
-4.62314e-06
2.29131e-06
-4.695e-06
1.66796e-06
-4.68945e-06
1.12712e-06
-4.63445e-06
6.38044e-07
-4.52888e-06
2.12697e-07
-4.38555e-06
-1.69501e-07
-4.21205e-06
-5.28782e-07
-4.02579e-06
-9.07466e-07
-3.83232e-06
-1.38171e-06
-3.608e-06
-2.06387e-06
-3.27532e-06
-3.09094e-06
-2.61739e-06
-4.55102e-06
-1.49586e-06
-5.87886e-06
-5.99523e-06
-8.56707e-07
2.81889e-06
-1.74253e-06
3.77462e-06
-2.49558e-06
4.32459e-06
-3.04762e-06
4.34569e-06
-3.38881e-06
3.83119e-06
-3.57898e-06
3.11423e-06
-3.67751e-06
2.38983e-06
-3.71974e-06
1.71019e-06
-3.69847e-06
1.10585e-06
-3.61667e-06
5.56246e-07
-3.47442e-06
7.04474e-08
-3.28348e-06
-3.60444e-07
-3.06507e-06
-7.47196e-07
-2.84484e-06
-1.12769e-06
-2.65343e-06
-1.57312e-06
-2.50676e-06
-2.21054e-06
-2.35742e-06
-3.24027e-06
-2.01569e-06
-4.89275e-06
-1.22282e-06
-6.67173e-06
-7.21805e-06
-7.18888e-07
3.53778e-06
-1.43691e-06
4.49264e-06
-2.01422e-06
4.9019e-06
-2.41765e-06
4.74912e-06
-2.66592e-06
4.07946e-06
-2.82284e-06
3.27115e-06
-2.92633e-06
2.49332e-06
-2.98454e-06
1.7684e-06
-2.98216e-06
1.10348e-06
-2.90942e-06
4.83509e-07
-2.76243e-06
-7.65469e-08
-2.5575e-06
-5.65372e-07
-2.31859e-06
-9.86109e-07
-2.07353e-06
-1.37276e-06
-1.85645e-06
-1.7902e-06
-1.7075e-06
-2.35949e-06
-1.63639e-06
-3.31138e-06
-1.5225e-06
-5.00663e-06
-9.60483e-07
-7.23375e-06
-8.17854e-06
-5.25587e-07
4.06337e-06
-1.06522e-06
5.03228e-06
-1.48992e-06
5.32659e-06
-1.79458e-06
5.05378e-06
-2.00579e-06
4.29067e-06
-2.16804e-06
3.4334e-06
-2.29634e-06
2.62162e-06
-2.38417e-06
1.85623e-06
-2.40938e-06
1.12869e-06
-2.35456e-06
4.28692e-07
-2.21446e-06
-2.16647e-07
-2.00694e-06
-7.7289e-07
-1.76506e-06
-1.22799e-06
-1.52018e-06
-1.61764e-06
-1.30125e-06
-2.00913e-06
-1.14697e-06
-2.51377e-06
-1.09556e-06
-3.36279e-06
-1.07344e-06
-5.02876e-06
-7.67694e-07
-7.53949e-06
-8.94623e-06
-3.27274e-07
4.39064e-06
-6.74891e-07
5.3799e-06
-9.6262e-07
5.61432e-06
-1.19452e-06
5.28569e-06
-1.38941e-06
4.48556e-06
-1.56001e-06
3.604e-06
-1.70765e-06
2.76926e-06
-1.8198e-06
1.96838e-06
-1.87194e-06
1.18083e-06
-1.84036e-06
3.97116e-07
-1.71628e-06
-3.40734e-07
-1.51812e-06
-9.71041e-07
-1.28831e-06
-1.4578e-06
-1.06464e-06
-1.84132e-06
-8.71912e-07
-2.20185e-06
-7.40607e-07
-2.64508e-06
-7.19083e-07
-3.38431e-06
-7.37958e-07
-5.00988e-06
-5.91767e-07
-7.68568e-06
-9.538e-06
-1.23453e-07
4.51409e-06
-2.94782e-07
5.55122e-06
-4.61877e-07
5.78141e-06
-6.19365e-07
5.44318e-06
-7.84592e-07
4.65079e-06
-9.45993e-07
3.7654e-06
-1.09327e-06
2.91654e-06
-1.21247e-06
2.08757e-06
-1.28252e-06
1.25087e-06
-1.27926e-06
3.93866e-07
-1.18805e-06
-4.31944e-07
-1.02078e-06
-1.13832e-06
-8.24833e-07
-1.65374e-06
-6.44207e-07
-2.02194e-06
-5.01487e-07
-2.34457e-06
-4.10903e-07
-2.73566e-06
-4.25548e-07
-3.36967e-06
-5.04088e-07
-4.93134e-06
-4.79685e-07
-7.71009e-06
-1.00177e-05
9.42177e-08
4.41988e-06
7.98101e-08
5.56563e-06
3.119e-08
5.83003e-06
-5.07159e-08
5.52508e-06
-1.6286e-07
4.76293e-06
-2.90338e-07
3.89288e-06
-4.13222e-07
3.03943e-06
-5.15869e-07
2.19022e-06
-5.84036e-07
1.31904e-06
-6.04206e-07
4.14036e-07
-5.59865e-07
-4.76286e-07
-4.54503e-07
-1.24368e-06
-3.28013e-07
-1.78023e-06
-2.20463e-07
-2.12949e-06
-1.48516e-07
-2.41652e-06
-1.32427e-07
-2.75175e-06
-1.8903e-07
-3.31307e-06
-3.22471e-07
-4.7979e-06
-3.77445e-07
-7.65511e-06
-1.03951e-05
2.73441e-07
4.14644e-06
4.44811e-07
5.39426e-06
5.46802e-07
5.72804e-06
5.6977e-07
5.50211e-06
4.9774e-07
4.83496e-06
4.13488e-07
3.97713e-06
3.3215e-07
3.12076e-06
2.63289e-07
2.25908e-06
2.1308e-07
1.36925e-06
1.82858e-07
4.44259e-07
1.81054e-07
-4.74482e-07
1.99839e-07
-1.26247e-06
2.21157e-07
-1.80155e-06
2.26108e-07
-2.13444e-06
2.01607e-07
-2.39202e-06
1.33271e-07
-2.68341e-06
3.39563e-08
-3.21375e-06
-1.88362e-07
-4.57558e-06
-3.30129e-07
-7.51335e-06
-1.07253e-05
4.43365e-07
3.70307e-06
7.8597e-07
5.05166e-06
1.01561e-06
5.4984e-06
1.15529e-06
5.36244e-06
1.17525e-06
4.815e-06
1.15286e-06
3.99952e-06
1.12282e-06
3.15081e-06
1.09485e-06
2.28705e-06
1.06622e-06
1.39788e-06
1.0261e-06
4.84378e-07
9.71773e-07
-4.20159e-07
9.01168e-07
-1.19186e-06
8.06891e-07
-1.70727e-06
6.90593e-07
-2.01814e-06
5.53818e-07
-2.25524e-06
3.96998e-07
-2.52659e-06
2.03698e-07
-3.02045e-06
-7.7666e-08
-4.29422e-06
-2.77537e-07
-7.31347e-06
-1.10028e-05
5.63028e-07
3.14004e-06
1.04681e-06
4.56788e-06
1.4132e-06
5.13201e-06
1.68607e-06
5.08957e-06
1.83485e-06
4.66622e-06
1.89955e-06
3.93482e-06
1.93078e-06
3.11958e-06
1.94476e-06
2.27307e-06
1.93616e-06
1.40649e-06
1.88644e-06
5.34093e-07
1.78077e-06
-3.14481e-07
1.61541e-06
-1.0265e-06
1.39745e-06
-1.48932e-06
1.15523e-06
-1.77593e-06
9.04179e-07
-2.00419e-06
6.44343e-07
-2.26676e-06
3.65107e-07
-2.74122e-06
1.02534e-08
-3.93936e-06
-2.24266e-07
-7.07895e-06
-1.12271e-05
6.12254e-07
2.52779e-06
1.21045e-06
3.96968e-06
1.71024e-06
4.63222e-06
2.11463e-06
4.68518e-06
2.41262e-06
4.36822e-06
2.59571e-06
3.75173e-06
2.70834e-06
3.00696e-06
2.76887e-06
2.21254e-06
2.77436e-06
1.40099e-06
2.70774e-06
6.00717e-07
2.54024e-06
-1.46981e-07
2.27735e-06
-7.63619e-07
1.94575e-06
-1.15771e-06
1.59161e-06
-1.42179e-06
1.23636e-06
-1.64894e-06
8.79713e-07
-1.91011e-06
5.23702e-07
-2.3852e-06
1.56712e-07
-3.57237e-06
-9.93026e-08
-6.82294e-06
-1.13264e-05
5.34623e-07
1.99317e-06
1.17325e-06
3.33105e-06
1.80203e-06
4.00344e-06
2.35617e-06
4.13104e-06
2.80896e-06
3.91544e-06
3.13302e-06
3.42767e-06
3.34661e-06
2.79337e-06
3.46192e-06
2.09722e-06
3.47869e-06
1.38423e-06
3.3863e-06
6.93107e-07
3.1651e-06
7.42108e-08
2.82195e-06
-4.20461e-07
2.4124e-06
-7.48169e-07
1.98098e-06
-9.90361e-07
1.54402e-06
-1.21198e-06
1.1005e-06
-1.46659e-06
6.79903e-07
-1.96461e-06
3.07034e-07
-3.19951e-06
4.43004e-08
-6.56021e-06
-1.12821e-05
4.0114e-07
1.59203e-06
1.0159e-06
2.71629e-06
1.67223e-06
3.34711e-06
2.3186e-06
3.48466e-06
2.8978e-06
3.33624e-06
3.35761e-06
2.96786e-06
3.68419e-06
2.46679e-06
3.87317e-06
1.90825e-06
3.92293e-06
1.33447e-06
3.82505e-06
7.90989e-07
3.58319e-06
3.16063e-07
3.22155e-06
-5.8819e-08
2.79139e-06
-3.18006e-07
2.32659e-06
-5.25565e-07
1.8362e-06
-7.21589e-07
1.32378e-06
-9.5417e-07
8.56714e-07
-1.49754e-06
4.82317e-07
-2.82511e-06
1.63686e-07
-6.24158e-06
-1.11184e-05
8.30454e-08
1.50898e-06
6.53029e-07
2.14631e-06
1.37029e-06
2.62985e-06
2.10398e-06
2.75097e-06
2.78373e-06
2.65649e-06
3.35151e-06
2.40008e-06
3.76932e-06
2.04897e-06
4.02864e-06
1.64894e-06
4.12201e-06
1.24109e-06
4.05998e-06
8.53016e-07
3.85153e-06
5.24514e-07
3.52699e-06
2.65725e-07
3.12266e-06
8.63244e-08
2.66532e-06
-6.82295e-08
2.16402e-06
-2.20284e-07
1.64284e-06
-4.32994e-07
1.15421e-06
-1.00891e-06
7.51846e-07
-2.42274e-06
3.1662e-07
-5.80635e-06
-1.08018e-05
-2.62226e-07
1.77121e-06
1.40702e-07
1.74338e-06
7.77008e-07
1.99354e-06
1.53354e-06
1.99444e-06
2.30017e-06
1.88986e-06
2.98421e-06
1.71605e-06
3.53314e-06
1.50004e-06
3.93087e-06
1.25121e-06
4.15201e-06
1.01995e-06
4.20477e-06
8.00256e-07
4.10286e-06
6.26428e-07
3.88889e-06
4.79686e-07
3.58783e-06
3.87389e-07
3.24248e-06
2.7712e-07
2.84401e-06
1.78186e-07
2.47626e-06
-6.52458e-08
2.06286e-06
-5.95509e-07
1.63161e-06
-1.99149e-06
7.97301e-07
-4.97204e-06
-1.00045e-05
-6.10267e-07
2.38147e-06
-2.41231e-07
1.37434e-06
6.58619e-07
1.0937e-06
1.63949e-06
1.01357e-06
2.56045e-06
9.689e-07
3.37286e-06
9.0363e-07
4.04856e-06
8.24341e-07
4.57598e-06
7.2379e-07
4.96189e-06
6.34044e-07
5.22906e-06
5.33081e-07
5.38877e-06
4.66719e-07
5.4838e-06
3.84654e-07
5.51812e-06
3.53073e-07
5.53631e-06
2.5893e-07
5.50893e-06
2.05568e-07
5.42047e-06
2.32086e-08
5.17176e-06
-3.46801e-07
4.48454e-06
-1.30426e-06
2.55766e-06
-3.04516e-06
-7.4468e-06
2.38147e-06
3.75582e-06
4.84951e-06
5.86308e-06
6.83198e-06
7.73561e-06
8.55995e-06
9.28374e-06
9.91779e-06
1.04509e-05
1.09176e-05
1.13022e-05
1.16553e-05
1.19142e-05
1.21198e-05
1.2143e-05
1.17962e-05
1.0492e-05
7.4468e-06
)
;

boundaryField
{
    movingWall
    {
        type            calculated;
        value           uniform 0;
    }
    fixedWalls
    {
        type            calculated;
        value           uniform 0;
    }
    frontAndBack
    {
        type            empty;
        value           nonuniform 0();
    }
}


// ************************************************************************* //
