/*--------------------------------*- C++ -*----------------------------------*\
| =========                 |                                                 |
| \\      /  F ield         | OpenFOAM: The Open Source CFD Toolbox           |
|  \\    /   O peration     | Version:  4.1                                   |
|   \\  /    A nd           | Web:      www.OpenFOAM.org                      |
|    \\/     M anipulation  |                                                 |
\*---------------------------------------------------------------------------*/
FoamFile
{
    version     2.0;
    format      ascii;
    class       volVectorField;
    location    "3.5";
    object      U;
}
// * * * * * * * * * * * * * * * * * * * * * * * * * * * * * * * * * * * * * //

dimensions      [0 1 -1 0 0 0 0];

internalField   nonuniform List<vector> 
400
(
(0.000821311 -0.00155374 0)
(-0.00110627 0.000116327 0)
(-0.00776937 0.00309171 0)
(-0.0229689 0.00862331 0)
(-0.0462006 0.0120833 0)
(-0.0701805 0.0117568 0)
(-0.0907878 0.0102917 0)
(-0.107953 0.00854947 0)
(-0.120719 0.00678587 0)
(-0.130276 0.00497402 0)
(-0.136614 0.00325878 0)
(-0.139786 0.00175091 0)
(-0.140669 3.71298e-05 0)
(-0.137414 -0.00246565 0)
(-0.129962 -0.00487395 0)
(-0.11666 -0.00855398 0)
(-0.0969797 -0.0124107 0)
(-0.0702676 -0.0158753 0)
(-0.0395644 -0.0159012 0)
(-0.0129897 -0.00873991 0)
(-0.00215882 0.00189872 0)
(-0.0118714 0.00984484 0)
(-0.0292889 0.0216451 0)
(-0.0511917 0.0305991 0)
(-0.0755778 0.0331135 0)
(-0.0958307 0.0308825 0)
(-0.111655 0.0266812 0)
(-0.123351 0.0218825 0)
(-0.132942 0.0156361 0)
(-0.139018 0.010893 0)
(-0.14279 0.00586939 0)
(-0.143779 0.00161277 0)
(-0.142453 -0.00321397 0)
(-0.138551 -0.00846394 0)
(-0.131273 -0.0155529 0)
(-0.119523 -0.0245057 0)
(-0.102161 -0.0356444 0)
(-0.0781422 -0.0466406 0)
(-0.048569 -0.0512922 0)
(-0.018403 -0.0384798 0)
(-0.00593415 0.0136134 0)
(-0.0224204 0.0287767 0)
(-0.0433201 0.0425942 0)
(-0.0653936 0.051076 0)
(-0.0851372 0.0510389 0)
(-0.0985447 0.0454688 0)
(-0.108266 0.0375701 0)
(-0.115725 0.0285232 0)
(-0.119392 0.0212056 0)
(-0.120417 0.0136392 0)
(-0.120109 0.00687565 0)
(-0.118631 0.000321209 0)
(-0.116761 -0.00623574 0)
(-0.113416 -0.013603 0)
(-0.108679 -0.0229959 0)
(-0.101109 -0.035895 0)
(-0.0894639 -0.0530172 0)
(-0.0716144 -0.0725309 0)
(-0.0472245 -0.0856147 0)
(-0.0194351 -0.0767881 0)
(-0.00814991 0.0304181 0)
(-0.0267793 0.0481 0)
(-0.0473669 0.0622252 0)
(-0.0662831 0.0682754 0)
(-0.0794083 0.0644334 0)
(-0.0870768 0.0551099 0)
(-0.0920726 0.0441951 0)
(-0.0939277 0.0331342 0)
(-0.0938383 0.0229469 0)
(-0.0934763 0.0136741 0)
(-0.0915811 0.00574516 0)
(-0.0891312 -0.00145684 0)
(-0.0860019 -0.00835005 0)
(-0.082706 -0.0159487 0)
(-0.0793362 -0.025747 0)
(-0.0754718 -0.039889 0)
(-0.0694433 -0.0606651 0)
(-0.0582635 -0.0876466 0)
(-0.040391 -0.109733 0)
(-0.0173134 -0.108797 0)
(-0.0079583 0.0473743 0)
(-0.0257575 0.0663365 0)
(-0.043949 0.0787989 0)
(-0.0581124 0.0812743 0)
(-0.0665673 0.0733006 0)
(-0.0706119 0.0606069 0)
(-0.073275 0.0471581 0)
(-0.07422 0.0341383 0)
(-0.0743549 0.0225682 0)
(-0.0733414 0.0121548 0)
(-0.0709304 0.00302618 0)
(-0.0675542 -0.00502893 0)
(-0.0633883 -0.0123846 0)
(-0.0590894 -0.0198296 0)
(-0.055213 -0.0289028 0)
(-0.0522559 -0.0422591 0)
(-0.049564 -0.0637734 0)
(-0.0435642 -0.0967273 0)
(-0.0318737 -0.12785 0)
(-0.0147635 -0.134854 0)
(-0.00674627 0.0630789 0)
(-0.0217174 0.0823314 0)
(-0.0363326 0.0921364 0)
(-0.0468102 0.0908981 0)
(-0.0523517 0.0791143 0)
(-0.055324 0.0639235 0)
(-0.0578649 0.0488764 0)
(-0.0593086 0.0347658 0)
(-0.0599487 0.022053 0)
(-0.05913 0.0103773 0)
(-0.0568068 -6.60825e-05 0)
(-0.0531856 -0.00922293 0)
(-0.0486591 -0.0172892 0)
(-0.0438107 -0.0249115 0)
(-0.0392693 -0.0333752 0)
(-0.0358165 -0.0451814 0)
(-0.0341039 -0.0649148 0)
(-0.0312748 -0.0990614 0)
(-0.0259333 -0.140861 0)
(-0.00954761 -0.155663 0)
(-0.00443393 0.0758194 0)
(-0.0164117 0.0951345 0)
(-0.0270176 0.102122 0)
(-0.0349177 0.097862 0)
(-0.0389429 0.0836004 0)
(-0.0419175 0.0669012 0)
(-0.04492 0.0509482 0)
(-0.0470612 0.036009 0)
(-0.0482885 0.0220893 0)
(-0.0479016 0.00894968 0)
(-0.0458043 -0.00302832 0)
(-0.0421802 -0.0134546 0)
(-0.0375878 -0.0222282 0)
(-0.032692 -0.0300199 0)
(-0.0280888 -0.0380772 0)
(-0.0243752 -0.0486764 0)
(-0.0228648 -0.0664699 0)
(-0.0206769 -0.0999252 0)
(-0.0204141 -0.148567 0)
(-0.00717379 -0.172106 0)
(-0.00228222 0.0845821 0)
(-0.0106218 0.104431 0)
(-0.0172373 0.109613 0)
(-0.02313 0.103438 0)
(-0.0263863 0.0875736 0)
(-0.0295813 0.0701264 0)
(-0.0329341 0.0536111 0)
(-0.0355896 0.037901 0)
(-0.0373187 0.022721 0)
(-0.0374162 0.00793732 0)
(-0.0356608 -0.00584006 0)
(-0.0322453 -0.0176975 0)
(-0.0278691 -0.0271098 0)
(-0.0233205 -0.0348534 0)
(-0.0191977 -0.0423554 0)
(-0.0157622 -0.0517407 0)
(-0.0149741 -0.0674147 0)
(-0.0131776 -0.100445 0)
(-0.0167711 -0.152345 0)
(-0.00400715 -0.185188 0)
(-0.000175029 0.0901074 0)
(-0.0045682 0.110023 0)
(-0.00793843 0.114187 0)
(-0.0118435 0.10733 0)
(-0.0142555 0.0912844 0)
(-0.0173631 0.0734843 0)
(-0.020647 0.0565949 0)
(-0.023389 0.0402296 0)
(-0.025361 0.0238951 0)
(-0.0258987 0.00746733 0)
(-0.0247202 -0.00825046 0)
(-0.0218975 -0.0216619 0)
(-0.0181941 -0.0316126 0)
(-0.0144534 -0.0390764 0)
(-0.0112925 -0.0458607 0)
(-0.00850135 -0.0540884 0)
(-0.00895236 -0.0676152 0)
(-0.0071425 -0.0994452 0)
(-0.0143278 -0.153949 0)
(-0.00226014 -0.195711 0)
(0.00259365 0.0901718 0)
(0.00153966 0.112144 0)
(0.00118581 0.117049 0)
(-0.000381435 0.11015 0)
(-0.00201473 0.0942172 0)
(-0.00456351 0.0766089 0)
(-0.00725319 0.0594879 0)
(-0.00957752 0.0426136 0)
(-0.011361 0.025425 0)
(-0.0121045 0.00771124 0)
(-0.011631 -0.00964488 0)
(-0.00990544 -0.0245148 0)
(-0.00756024 -0.0349876 0)
(-0.00527055 -0.0420802 0)
(-0.00363963 -0.0480928 0)
(-0.00188514 -0.055224 0)
(-0.00425952 -0.0671015 0)
(-0.00218108 -0.0973936 0)
(-0.0124846 -0.153536 0)
(-0.000117848 -0.204284 0)
(0.00442733 0.0871375 0)
(0.00710511 0.110742 0)
(0.00979336 0.116429 0)
(0.0108768 0.110935 0)
(0.0106073 0.096166 0)
(0.00896332 0.0787719 0)
(0.00722241 0.0616446 0)
(0.00569491 0.0445069 0)
(0.00449619 0.0268322 0)
(0.00386231 0.00841632 0)
(0.00378476 -0.00984783 0)
(0.00417651 -0.0255605 0)
(0.004502 -0.0363965 0)
(0.00462756 -0.0431945 0)
(0.00423437 -0.0485676 0)
(0.00449806 -0.0547395 0)
(-0.000296742 -0.0654985 0)
(0.00240612 -0.0937092 0)
(-0.0119344 -0.151772 0)
(0.00148899 -0.211316 0)
(0.0061535 0.0801739 0)
(0.0121925 0.106294 0)
(0.0183315 0.113638 0)
(0.0212983 0.109979 0)
(0.0231969 0.0977344 0)
(0.0230544 0.0804635 0)
(0.0224769 0.0631415 0)
(0.021901 0.0457618 0)
(0.0214335 0.0278772 0)
(0.0210455 0.00934229 0)
(0.0205753 -0.00904307 0)
(0.0196203 -0.0247828 0)
(0.0175716 -0.0354786 0)
(0.0150774 -0.0419665 0)
(0.0123189 -0.0468935 0)
(0.0106635 -0.0524809 0)
(0.00331903 -0.0625489 0)
(0.00696116 -0.0885924 0)
(-0.0117778 -0.148363 0)
(0.00386762 -0.216951 0)
(0.00722227 0.0695394 0)
(0.0161685 0.097476 0)
(0.0247499 0.107391 0)
(0.0308978 0.105301 0)
(0.0349146 0.0958276 0)
(0.0370857 0.0801934 0)
(0.0380248 0.0633543 0)
(0.0385125 0.0461181 0)
(0.0387724 0.028436 0)
(0.0385719 0.0103697 0)
(0.037605 -0.0073305 0)
(0.0351759 -0.0222313 0)
(0.0307131 -0.0321519 0)
(0.0255942 -0.0382231 0)
(0.0203207 -0.042903 0)
(0.0167136 -0.0482046 0)
(0.00667208 -0.0577252 0)
(0.0111548 -0.0821727 0)
(-0.0121768 -0.144037 0)
(0.00676418 -0.221475 0)
(0.00689959 0.0570642 0)
(0.0187285 0.0866182 0)
(0.0294386 0.0996083 0)
(0.0383045 0.099904 0)
(0.0450025 0.0923777 0)
(0.0498047 0.0787199 0)
(0.0527928 0.0627491 0)
(0.0546226 0.0459606 0)
(0.055566 0.0288349 0)
(0.0553962 0.0117282 0)
(0.0536515 -0.00460794 0)
(0.0495064 -0.017846 0)
(0.0427899 -0.0264778 0)
(0.0354572 -0.0320693 0)
(0.0278709 -0.0366742 0)
(0.0225445 -0.0419023 0)
(0.00988518 -0.0512743 0)
(0.015184 -0.0748653 0)
(-0.012244 -0.13825 0)
(0.0110489 -0.225427 0)
(0.0052775 0.0444511 0)
(0.0172943 0.0720805 0)
(0.0302165 0.0860505 0)
(0.0418324 0.0885513 0)
(0.051488 0.0838141 0)
(0.0591898 0.0731547 0)
(0.0646175 0.0594281 0)
(0.0680645 0.044364 0)
(0.0697131 0.028827 0)
(0.0694121 0.0135207 0)
(0.0667372 -0.000611001 0)
(0.0610921 -0.0116225 0)
(0.0528194 -0.0188579 0)
(0.044135 -0.0240043 0)
(0.034793 -0.0285909 0)
(0.0280992 -0.0338107 0)
(0.0127951 -0.0434867 0)
(0.0193426 -0.0676895 0)
(-0.0120628 -0.134268 0)
(0.0161883 -0.229676 0)
(0.00289165 0.0351967 0)
(0.0144216 0.0618244 0)
(0.0271972 0.0752182 0)
(0.0401734 0.07787 0)
(0.0520366 0.0741793 0)
(0.0623521 0.0655239 0)
(0.0702933 0.0539239 0)
(0.0756864 0.0410045 0)
(0.0783991 0.0278065 0)
(0.0783219 0.0151294 0)
(0.0751951 0.00399271 0)
(0.0690988 -0.00456942 0)
(0.0605603 -0.0104661 0)
(0.0516262 -0.0150532 0)
(0.041199 -0.0193639 0)
(0.0335353 -0.0243664 0)
(0.0158495 -0.0348903 0)
(0.0242871 -0.0607795 0)
(-0.0117243 -0.131495 0)
(0.02254 -0.233898 0)
(-0.00222894 0.0264872 0)
(0.00623432 0.0449144 0)
(0.0208128 0.0574203 0)
(0.0350907 0.060963 0)
(0.0487578 0.0592074 0)
(0.0611608 0.053548 0)
(0.0711233 0.0454431 0)
(0.0781677 0.0361782 0)
(0.0819295 0.0262452 0)
(0.0826463 0.0169353 0)
(0.0800457 0.00874512 0)
(0.0747872 0.0021987 0)
(0.0669209 -0.00252345 0)
(0.0586224 -0.00636631 0)
(0.0478354 -0.0100247 0)
(0.0399804 -0.0146085 0)
(0.0215681 -0.0264678 0)
(0.0314789 -0.0548955 0)
(-0.0108548 -0.128005 0)
(0.0308737 -0.232512 0)
(-0.00589121 0.0408807 0)
(-0.00342917 0.0471269 0)
(0.00933217 0.0522356 0)
(0.0231616 0.0519702 0)
(0.0381257 0.0489415 0)
(0.0525511 0.0437496 0)
(0.0650016 0.0373121 0)
(0.0748021 0.0302327 0)
(0.0813069 0.0238066 0)
(0.0844562 0.0178216 0)
(0.0837724 0.0129748 0)
(0.0809641 0.00910441 0)
(0.0750104 0.00643722 0)
(0.0691788 0.00399658 0)
(0.0601608 0.00187707 0)
(0.0539692 -0.00242918 0)
(0.0399338 -0.0159188 0)
(0.0489669 -0.0475596 0)
(0.000853542 -0.114237 0)
(0.0470712 -0.209029 0)
(-0.00649857 0.0150301 0)
(-0.0143213 0.00919788 0)
(0.00460111 0.016887 0)
(0.0230372 0.0206628 0)
(0.0415931 0.0218596 0)
(0.0590684 0.0213135 0)
(0.0739852 0.019764 0)
(0.086496 0.0173436 0)
(0.095396 0.014836 0)
(0.102642 0.0121391 0)
(0.106325 0.0101109 0)
(0.109691 0.00823772 0)
(0.109943 0.00726772 0)
(0.110869 0.00543574 0)
(0.109295 0.00365215 0)
(0.109031 -0.00116925 0)
(0.102054 -0.01 0)
(0.102888 -0.0345295 0)
(0.0524465 -0.0801328 0)
(0.0853663 -0.155552 0)
(0.0495661 0.0994166 0)
(0.0554475 0.06051 0)
(0.0857923 0.0372215 0)
(0.108381 0.0268054 0)
(0.127539 0.0216249 0)
(0.145969 0.0183291 0)
(0.162607 0.0160515 0)
(0.178619 0.0139863 0)
(0.191806 0.0125825 0)
(0.204275 0.0109491 0)
(0.21376 0.0102069 0)
(0.22282 0.00869076 0)
(0.229355 0.00852765 0)
(0.235446 0.00664828 0)
(0.239585 0.0066811 0)
(0.24184 0.00301979 0)
(0.238625 0.000133111 0)
(0.227603 -0.00731078 0)
(0.179316 -0.0204995 0)
(0.168726 -0.117044 0)
)
;

boundaryField
{
    movingWall
    {
        type            fixedValue;
        value           uniform (1 0 0);
    }
    fixedWalls
    {
        type            noSlip;
    }
    frontAndBack
    {
        type            empty;
    }
}


// ************************************************************************* //
