/*--------------------------------*- C++ -*----------------------------------*\
| =========                 |                                                 |
| \\      /  F ield         | OpenFOAM: The Open Source CFD Toolbox           |
|  \\    /   O peration     | Version:  4.1                                   |
|   \\  /    A nd           | Web:      www.OpenFOAM.org                      |
|    \\/     M anipulation  |                                                 |
\*---------------------------------------------------------------------------*/
FoamFile
{
    version     2.0;
    format      ascii;
    class       volScalarField;
    location    "5.5";
    object      epsilon;
}
// * * * * * * * * * * * * * * * * * * * * * * * * * * * * * * * * * * * * * //

dimensions      [0 2 -3 0 0 0 0];

internalField   nonuniform List<scalar> 
400
(
0.000214028
0.000704464
0.00245108
0.00541737
0.00836475
0.0104381
0.0116781
0.0122594
0.0124471
0.0123707
0.0118078
0.0111576
0.010252
0.00941965
0.00853831
0.00777387
0.00711153
0.00648267
0.00511704
0.00401136
0.000507424
0.00139237
0.00318756
0.00461302
0.00508392
0.00488865
0.00420392
0.00356409
0.00297049
0.00255932
0.0023368
0.00226884
0.00241504
0.00271375
0.00318223
0.00394103
0.00512895
0.00676941
0.0087289
0.00965009
0.00119916
0.00214357
0.00290655
0.00305805
0.00250202
0.00194257
0.0014573
0.00120403
0.00106447
0.00100841
0.00099708
0.00105349
0.00117992
0.00138703
0.00177946
0.00246929
0.00373792
0.0060004
0.0100868
0.0153341
0.00205776
0.00214307
0.0023394
0.0019319
0.00128817
0.000941348
0.000719366
0.000616022
0.00055451
0.000525483
0.000515464
0.000521767
0.000580031
0.000682742
0.000910256
0.00137615
0.00241019
0.00472691
0.0101902
0.0193054
0.00270461
0.00203353
0.0018325
0.00121393
0.000754771
0.000542172
0.00041353
0.00034909
0.00030042
0.000277036
0.000267413
0.000267309
0.00030136
0.00036917
0.000518193
0.00086202
0.00169741
0.00377951
0.00962349
0.0224345
0.00326789
0.00181217
0.00141059
0.000803628
0.000492918
0.000347134
0.000257959
0.000209586
0.000173721
0.000156652
0.000150016
0.000149979
0.000172093
0.000218581
0.000321077
0.000564204
0.00124169
0.00318604
0.0092227
0.0249204
0.00388368
0.00158918
0.00109953
0.000586131
0.000356159
0.000246446
0.000177702
0.000141028
0.000114945
0.000102442
9.75079e-05
9.73076e-05
0.000111256
0.000143095
0.000212545
0.000383521
0.000910155
0.00265225
0.00885163
0.0270675
0.00456211
0.00142987
0.000886221
0.000466312
0.000283918
0.000194904
0.000137564
0.000108299
8.8301e-05
7.79625e-05
7.3821e-05
7.36115e-05
8.32278e-05
0.000106484
0.000158169
0.000284893
0.000710257
0.00230259
0.00866419
0.0289707
0.00522783
0.00128979
0.000747162
0.000400502
0.000248885
0.000170337
0.000118911
9.3474e-05
7.72546e-05
6.78463e-05
6.40225e-05
6.40311e-05
7.13318e-05
8.92861e-05
0.000129
0.000224587
0.000547991
0.00198004
0.00859519
0.0308112
0.00595883
0.00127509
0.000659453
0.000365535
0.000237895
0.000167714
0.000117897
9.12247e-05
7.5782e-05
6.63126e-05
6.15707e-05
6.1504e-05
6.75234e-05
8.23819e-05
0.00011532
0.000196121
0.00045728
0.00177301
0.00858873
0.0326599
0.00650109
0.00135228
0.000613618
0.000351651
0.000239763
0.000171332
0.000121616
9.38541e-05
7.81189e-05
6.8769e-05
6.37482e-05
6.30111e-05
6.72586e-05
8.05345e-05
0.000109795
0.000182971
0.000397069
0.00160418
0.00873616
0.0346686
0.00692898
0.00156396
0.000625437
0.000355434
0.000246616
0.000180754
0.000131313
0.000101228
8.43735e-05
7.47254e-05
6.92557e-05
6.8235e-05
7.15848e-05
8.27779e-05
0.000108819
0.000178682
0.000373107
0.00152648
0.00882531
0.0369419
0.00690133
0.00189795
0.00067667
0.000370584
0.000260335
0.000196641
0.000147718
0.000115266
9.58749e-05
8.46576e-05
7.81849e-05
7.68232e-05
7.97444e-05
9.03368e-05
0.000114836
0.000180311
0.000364293
0.00150251
0.00905659
0.0396965
0.006667
0.00226351
0.000796365
0.000408454
0.000278909
0.000214216
0.000167049
0.000133454
0.000111847
9.91031e-05
9.15489e-05
9.02364e-05
9.30782e-05
0.000103846
0.000128644
0.000196781
0.000378392
0.00156997
0.00981841
0.0431488
0.00601883
0.00256846
0.000986441
0.000485147
0.000315605
0.000236789
0.00018712
0.000153712
0.000131636
0.000118948
0.000110603
0.000110379
0.000113651
0.000125816
0.000153663
0.000230831
0.000434833
0.00179415
0.0114194
0.0477985
0.00506084
0.00256917
0.00123656
0.000653749
0.000402387
0.000284633
0.000220372
0.000180398
0.000154878
0.000141461
0.000134313
0.000135941
0.000142161
0.000160259
0.000200761
0.000306262
0.000580274
0.00235628
0.0139563
0.0543099
0.00345697
0.00231713
0.00131457
0.000790194
0.000523599
0.000379914
0.00029324
0.000239558
0.000206846
0.000189488
0.000187489
0.000193481
0.000210174
0.000253591
0.000340808
0.000536461
0.00103474
0.00384463
0.01879
0.0639099
0.00279929
0.00196286
0.0015292
0.00114275
0.000893273
0.000735366
0.00063663
0.000582371
0.000569351
0.000582532
0.000617417
0.000694052
0.000789598
0.000924917
0.00116586
0.00176063
0.00324372
0.00914623
0.0303622
0.0796912
0.00368899
0.00539884
0.00683788
0.00722877
0.00732507
0.00741919
0.00758816
0.00788812
0.00823417
0.00881056
0.00930684
0.0101699
0.0108418
0.0121864
0.0132286
0.016067
0.0219965
0.0368818
0.0701177
0.111703
0.0444268
0.0890499
0.1233
0.137524
0.141982
0.14312
0.14333
0.143819
0.144294
0.145358
0.146169
0.147845
0.149161
0.151512
0.154141
0.157541
0.161037
0.165496
0.18059
0.154956
)
;

boundaryField
{
    movingWall
    {
        Cmu             0.09;
        kappa           0.41;
        E               9.8;
        type            epsilonWallFunction;
        value           nonuniform List<scalar> 
20
(
0.0444268
0.0890499
0.1233
0.137524
0.141982
0.14312
0.14333
0.143819
0.144294
0.145358
0.146169
0.147845
0.149161
0.151512
0.154141
0.157541
0.161037
0.165496
0.18059
0.154956
)
;
    }
    fixedWalls
    {
        Cmu             0.09;
        kappa           0.41;
        E               9.8;
        type            epsilonWallFunction;
        value           nonuniform List<scalar> 
60
(
0.000214028
0.000507424
0.00119916
0.00205776
0.00270461
0.00326789
0.00388368
0.00456211
0.00522783
0.00595883
0.00650109
0.00692898
0.00690133
0.006667
0.00601883
0.00506084
0.00345697
0.00279929
0.00368899
0.0444268
0.00401136
0.00965009
0.0153341
0.0193054
0.0224345
0.0249204
0.0270675
0.0289707
0.0308112
0.0326599
0.0346686
0.0369419
0.0396965
0.0431488
0.0477985
0.0543099
0.0639099
0.0796912
0.111703
0.154956
0.000214028
0.000704464
0.00245108
0.00541737
0.00836475
0.0104381
0.0116781
0.0122594
0.0124471
0.0123707
0.0118078
0.0111576
0.010252
0.00941965
0.00853831
0.00777387
0.00711153
0.00648267
0.00511704
0.00401136
)
;
    }
    frontAndBack
    {
        type            empty;
    }
}


// ************************************************************************* //
