/*--------------------------------*- C++ -*----------------------------------*\
| =========                 |                                                 |
| \\      /  F ield         | OpenFOAM: The Open Source CFD Toolbox           |
|  \\    /   O peration     | Version:  4.1                                   |
|   \\  /    A nd           | Web:      www.OpenFOAM.org                      |
|    \\/     M anipulation  |                                                 |
\*---------------------------------------------------------------------------*/
FoamFile
{
    version     2.0;
    format      ascii;
    class       volScalarField;
    location    "5.5";
    object      k;
}
// * * * * * * * * * * * * * * * * * * * * * * * * * * * * * * * * * * * * * //

dimensions      [0 2 -2 0 0 0 0];

internalField   nonuniform List<scalar> 
400
(
0.000121418
0.00026875
0.000616854
0.00104617
0.00139704
0.00161888
0.00174446
0.00180177
0.00182006
0.00181253
0.00175716
0.00169202
0.00159923
0.00151145
0.00141564
0.00132985
0.00125318
0.00117819
0.00100627
0.000855521
0.000215925
0.000483555
0.000834554
0.00102345
0.00109659
0.00102162
0.000926434
0.000840537
0.000778089
0.00074689
0.000734288
0.00074248
0.000796571
0.000860476
0.000970855
0.00110549
0.00128145
0.001459
0.00157449
0.00153601
0.000382937
0.000693217
0.000828061
0.000862849
0.000682868
0.000596908
0.000515789
0.000477941
0.000459509
0.000451871
0.000450385
0.000459754
0.000484412
0.00052433
0.000605363
0.000739564
0.000962701
0.0012951
0.00174548
0.00209162
0.000548765
0.000747954
0.000771105
0.000625046
0.000475734
0.000411198
0.000367633
0.000348187
0.000335007
0.000328473
0.000325918
0.000325768
0.000336259
0.000356313
0.00040415
0.00050178
0.000701435
0.00107293
0.00174268
0.00243877
0.000658325
0.000735646
0.000664408
0.000464678
0.000363272
0.000315215
0.000284818
0.000270638
0.000263981
0.000261882
0.000261877
0.000269743
0.000276662
0.000293755
0.00032491
0.000394063
0.000560434
0.000912112
0.00165534
0.00269568
0.000746816
0.000703885
0.00055812
0.000372869
0.000293426
0.000254546
0.000232091
0.000222843
0.00021984
0.000219553
0.000225663
0.00023689
0.000249222
0.000267528
0.000293693
0.000344349
0.000477697
0.00081408
0.00161326
0.00289135
0.000837879
0.000655367
0.000478173
0.00031724
0.000251037
0.000218402
0.000201024
0.000194747
0.000193226
0.00019367
0.000199909
0.000210879
0.000226288
0.000248564
0.000278356
0.000319836
0.000421202
0.000722692
0.00157842
0.00305516
0.000932801
0.000596501
0.000422206
0.000282426
0.00022527
0.000195569
0.000182394
0.000177986
0.00017703
0.000177186
0.000180865
0.000189439
0.000204852
0.000228937
0.000262866
0.000305085
0.000388761
0.000660436
0.00156408
0.00319676
0.00102147
0.000559724
0.000384191
0.000263834
0.00021492
0.000189498
0.000174943
0.000169457
0.000168194
0.000168146
0.000170236
0.000177153
0.000191041
0.000214505
0.000249858
0.000293295
0.000358802
0.000599051
0.00156089
0.00333077
0.00111462
0.000528374
0.000360977
0.000253346
0.000215276
0.000190783
0.000175133
0.000168248
0.000165855
0.000165249
0.000166508
0.000172439
0.000184626
0.000206551
0.000239962
0.000286975
0.000337344
0.000555388
0.00157217
0.00346272
0.00118126
0.000531814
0.000346729
0.000252796
0.000217561
0.000194966
0.000177896
0.000169689
0.000166753
0.00016606
0.000167259
0.000171728
0.000182436
0.00020285
0.000232551
0.000282306
0.000315919
0.000511456
0.00158946
0.00360326
0.0012326
0.000548973
0.000348212
0.000254888
0.000223244
0.000203339
0.000185445
0.000174888
0.000170725
0.000169806
0.000170978
0.000174506
0.000183006
0.000201676
0.000228872
0.000279211
0.000303524
0.000483857
0.00160497
0.00375906
0.00122934
0.000584791
0.00035676
0.000260514
0.00022887
0.000211577
0.000194834
0.000183141
0.0001774
0.000175623
0.000176468
0.000179403
0.000186635
0.000203788
0.000227584
0.000275252
0.000288911
0.000465933
0.00162535
0.00394361
0.00120139
0.000634255
0.000378333
0.000273304
0.000235115
0.000217578
0.000202549
0.000190817
0.000184159
0.000182082
0.000183017
0.000186176
0.000193195
0.000210456
0.000229886
0.000271195
0.000279192
0.000459311
0.00169802
0.00416897
0.00112226
0.000681569
0.000410346
0.000292785
0.00024595
0.000224197
0.000208257
0.000196789
0.000189911
0.00018907
0.000190563
0.000194901
0.000202445
0.000219822
0.000233451
0.000264354
0.000270642
0.000464036
0.00184429
0.00446323
0.000999726
0.000695566
0.000462279
0.000334475
0.000270933
0.000238857
0.000218801
0.000205377
0.000196248
0.000196095
0.000197921
0.000203477
0.000209743
0.000223779
0.000234434
0.000255052
0.000267996
0.000521746
0.00208289
0.00485979
0.000775315
0.000662398
0.000484313
0.000370819
0.000306131
0.000268181
0.00024157
0.000223315
0.000209848
0.000203962
0.000204171
0.000206714
0.000211903
0.000223749
0.000234941
0.000251576
0.000297036
0.000678256
0.00249811
0.00541674
0.000673344
0.000606433
0.000528355
0.000442759
0.000381853
0.000337864
0.000303381
0.000278461
0.000260446
0.000248628
0.000246439
0.000248782
0.000254534
0.000266784
0.000293094
0.000362425
0.000541119
0.00121638
0.00338962
0.00627522
0.000809272
0.000892229
0.000985339
0.000980056
0.000962225
0.000950238
0.000953689
0.000968866
0.000997835
0.00105669
0.00110818
0.00120788
0.00128594
0.00144675
0.00157123
0.00184834
0.00232601
0.00344668
0.00589137
0.00785954
0.00425099
0.00675791
0.00839494
0.00902836
0.00922214
0.00927096
0.00927986
0.00930071
0.00932115
0.00936687
0.00940174
0.00947357
0.00952995
0.00962988
0.00974126
0.00988399
0.0100297
0.0102141
0.0108262
0.0097759
)
;

boundaryField
{
    movingWall
    {
        type            kqRWallFunction;
        value           nonuniform List<scalar> 
20
(
0.00425099
0.00675791
0.00839494
0.00902836
0.00922214
0.00927096
0.00927986
0.00930071
0.00932115
0.00936687
0.00940174
0.00947357
0.00952995
0.00962988
0.00974126
0.00988399
0.0100297
0.0102141
0.0108262
0.0097759
)
;
    }
    fixedWalls
    {
        type            kqRWallFunction;
        value           nonuniform List<scalar> 
60
(
0.000121418
0.000215925
0.000382937
0.000548765
0.000658325
0.000746816
0.000837879
0.000932801
0.00102147
0.00111462
0.00118126
0.0012326
0.00122934
0.00120139
0.00112226
0.000999726
0.000775315
0.000673344
0.000809272
0.00425099
0.000855521
0.00153601
0.00209162
0.00243877
0.00269568
0.00289135
0.00305516
0.00319676
0.00333077
0.00346272
0.00360326
0.00375906
0.00394361
0.00416897
0.00446323
0.00485979
0.00541674
0.00627522
0.00785954
0.0097759
0.000121418
0.00026875
0.000616854
0.00104617
0.00139704
0.00161888
0.00174446
0.00180177
0.00182006
0.00181253
0.00175716
0.00169202
0.00159923
0.00151145
0.00141564
0.00132985
0.00125318
0.00117819
0.00100627
0.000855521
)
;
    }
    frontAndBack
    {
        type            empty;
    }
}


// ************************************************************************* //
