/*--------------------------------*- C++ -*----------------------------------*\
| =========                 |                                                 |
| \\      /  F ield         | OpenFOAM: The Open Source CFD Toolbox           |
|  \\    /   O peration     | Version:  4.1                                   |
|   \\  /    A nd           | Web:      www.OpenFOAM.org                      |
|    \\/     M anipulation  |                                                 |
\*---------------------------------------------------------------------------*/
FoamFile
{
    version     2.0;
    format      ascii;
    class       volScalarField;
    location    "5.5";
    object      nut;
}
// * * * * * * * * * * * * * * * * * * * * * * * * * * * * * * * * * * * * * //

dimensions      [0 2 -1 0 0 0 0];

internalField   nonuniform List<scalar> 
400
(
6.19927e-06
9.2274e-06
1.39717e-05
1.81828e-05
2.09995e-05
2.2597e-05
2.34527e-05
2.38326e-05
2.39523e-05
2.3901e-05
2.35338e-05
2.30931e-05
2.24519e-05
2.1827e-05
2.11242e-05
2.04743e-05
1.98749e-05
1.92716e-05
1.78097e-05
1.64215e-05
8.26949e-06
1.5114e-05
1.9665e-05
2.04357e-05
2.12879e-05
1.92148e-05
1.83746e-05
1.78405e-05
1.83431e-05
1.96169e-05
2.0766e-05
2.18679e-05
2.36465e-05
2.45556e-05
2.66575e-05
2.79088e-05
2.88149e-05
2.83012e-05
2.556e-05
2.20038e-05
1.10058e-05
2.01764e-05
2.12319e-05
2.19113e-05
1.67736e-05
1.65075e-05
1.643e-05
1.70747e-05
1.78525e-05
1.82236e-05
1.83097e-05
1.80578e-05
1.78985e-05
1.78388e-05
1.85347e-05
1.99353e-05
2.23149e-05
2.51578e-05
2.71846e-05
2.56774e-05
1.31711e-05
2.34939e-05
2.28752e-05
1.82005e-05
1.58124e-05
1.61657e-05
1.69092e-05
1.77121e-05
1.82155e-05
1.84792e-05
1.85465e-05
1.83056e-05
1.75444e-05
1.6736e-05
1.61497e-05
1.64666e-05
1.83724e-05
2.19185e-05
2.68222e-05
2.77272e-05
1.44218e-05
2.39513e-05
2.16805e-05
1.60086e-05
1.57359e-05
1.64937e-05
1.76551e-05
1.88835e-05
2.08765e-05
2.22801e-05
2.30811e-05
2.44979e-05
2.2859e-05
2.10371e-05
1.83349e-05
1.62128e-05
1.66535e-05
1.98108e-05
2.56261e-05
2.91517e-05
1.53604e-05
2.46064e-05
1.98745e-05
1.55704e-05
1.57204e-05
1.67987e-05
1.87935e-05
2.13244e-05
2.50383e-05
2.76942e-05
3.0551e-05
3.36748e-05
3.24827e-05
2.94692e-05
2.4178e-05
1.8915e-05
1.654e-05
1.87208e-05
2.53975e-05
3.01917e-05
1.6269e-05
2.43242e-05
1.87157e-05
1.54534e-05
1.59248e-05
1.74195e-05
2.04666e-05
2.42034e-05
2.92335e-05
3.29524e-05
3.68864e-05
4.11305e-05
4.14231e-05
3.88594e-05
3.28089e-05
2.40054e-05
1.75432e-05
1.77229e-05
2.53317e-05
3.10356e-05
1.71654e-05
2.23959e-05
1.8103e-05
1.53949e-05
1.60863e-05
1.76612e-05
2.1765e-05
2.63261e-05
3.19426e-05
3.62423e-05
3.98814e-05
4.38771e-05
4.53789e-05
4.42987e-05
3.9318e-05
2.94037e-05
1.9151e-05
1.70485e-05
2.54117e-05
3.17471e-05
1.79627e-05
2.1861e-05
1.77797e-05
1.56423e-05
1.67031e-05
1.89734e-05
2.31641e-05
2.76483e-05
3.29565e-05
3.75052e-05
4.0739e-05
4.41112e-05
4.60483e-05
4.63804e-05
4.35554e-05
3.4472e-05
2.11436e-05
1.63116e-05
2.55112e-05
3.2406e-05
1.87644e-05
1.97054e-05
1.77835e-05
1.58031e-05
1.75327e-05
1.95322e-05
2.3414e-05
2.79275e-05
3.26689e-05
3.70614e-05
4.05265e-05
4.35123e-05
4.54332e-05
4.66087e-05
4.49388e-05
3.77927e-05
2.23979e-05
1.56575e-05
2.59009e-05
3.30416e-05
1.93174e-05
1.88233e-05
1.76329e-05
1.63558e-05
1.77673e-05
1.99675e-05
2.342e-05
2.76118e-05
3.20355e-05
3.60895e-05
3.94961e-05
4.21219e-05
4.45366e-05
4.59846e-05
4.43297e-05
3.92015e-05
2.26218e-05
1.4676e-05
2.60267e-05
3.37052e-05
1.97341e-05
1.73428e-05
1.7448e-05
1.64507e-05
1.81879e-05
2.05871e-05
2.35702e-05
2.71932e-05
3.10907e-05
3.47279e-05
3.79897e-05
4.0166e-05
4.21068e-05
4.42218e-05
4.33236e-05
3.92668e-05
2.22226e-05
1.38034e-05
2.62692e-05
3.44256e-05
1.97086e-05
1.62166e-05
1.69284e-05
1.64823e-05
1.81086e-05
2.04883e-05
2.31279e-05
2.61887e-05
2.95424e-05
3.279e-05
3.58469e-05
3.77061e-05
3.93123e-05
4.13748e-05
4.05928e-05
3.78166e-05
2.06215e-05
1.30038e-05
2.62526e-05
3.52597e-05
1.94842e-05
1.59951e-05
1.61763e-05
1.64585e-05
1.78378e-05
1.98894e-05
2.21034e-05
2.45553e-05
2.72902e-05
3.01086e-05
3.29286e-05
3.45707e-05
3.609e-05
3.83863e-05
3.69725e-05
3.36373e-05
1.85399e-05
1.20938e-05
2.64293e-05
3.6252e-05
1.8833e-05
1.62776e-05
1.53628e-05
1.59026e-05
1.72502e-05
1.91048e-05
2.08604e-05
2.26746e-05
2.46586e-05
2.70479e-05
2.95498e-05
3.09732e-05
3.2455e-05
3.4566e-05
3.192e-05
2.7247e-05
1.51604e-05
1.08016e-05
2.68075e-05
3.75084e-05
1.77739e-05
1.69483e-05
1.55538e-05
1.54013e-05
1.64181e-05
1.80399e-05
1.95517e-05
2.10432e-05
2.23802e-05
2.44646e-05
2.62487e-05
2.74108e-05
2.78508e-05
2.81227e-05
2.46379e-05
1.91164e-05
1.11395e-05
1.03976e-05
2.79771e-05
3.91381e-05
1.56496e-05
1.70424e-05
1.60587e-05
1.56615e-05
1.61086e-05
1.70378e-05
1.79104e-05
1.87356e-05
1.91604e-05
1.97587e-05
2.00103e-05
1.98766e-05
1.92282e-05
1.77677e-05
1.45764e-05
1.0618e-05
7.67412e-06
1.0769e-05
2.98908e-05
4.13191e-05
1.4577e-05
1.68624e-05
1.64297e-05
1.54393e-05
1.4691e-05
1.39708e-05
1.30117e-05
1.19832e-05
1.07225e-05
9.55042e-06
8.85281e-06
8.02579e-06
7.38463e-06
6.92562e-06
6.63149e-06
6.71444e-06
8.12428e-06
1.45591e-05
3.40574e-05
4.44724e-05
1.5978e-05
1.32707e-05
1.27789e-05
1.19586e-05
1.13758e-05
1.09534e-05
1.07875e-05
1.07102e-05
1.08828e-05
1.1406e-05
1.18757e-05
1.29115e-05
1.37272e-05
1.54581e-05
1.6796e-05
1.91369e-05
2.21367e-05
2.89889e-05
4.455e-05
4.97704e-05
3.66081e-05
4.61566e-05
5.14418e-05
5.33436e-05
5.39105e-05
5.40494e-05
5.40739e-05
5.41324e-05
5.41916e-05
5.43241e-05
5.44256e-05
5.4634e-05
5.47984e-05
5.50853e-05
5.54056e-05
5.58101e-05
5.62205e-05
5.67354e-05
5.84121e-05
5.55069e-05
)
;

boundaryField
{
    movingWall
    {
        type            nutkWallFunction;
        Cmu             0.09;
        kappa           0.41;
        E               9.8;
        value           nonuniform List<scalar> 
20
(
0
0
6.90214e-07
1.00301e-06
1.09617e-06
1.11946e-06
1.12369e-06
1.13361e-06
1.14332e-06
1.165e-06
1.1815e-06
1.21536e-06
1.24184e-06
1.28855e-06
1.34029e-06
1.40609e-06
1.47271e-06
1.55619e-06
1.82735e-06
1.35631e-06
)
;
    }
    fixedWalls
    {
        type            nutkWallFunction;
        Cmu             0.09;
        kappa           0.41;
        E               9.8;
        value           nonuniform List<scalar> 
60
(
0
0
0
0
0
0
0
0
0
0
0
0
0
0
0
0
0
0
0
0
0
0
0
0
0
0
0
0
0
0
0
0
0
0
0
0
0
0
4.15026e-07
1.35631e-06
0
0
0
0
0
0
0
0
0
0
0
0
0
0
0
0
0
0
0
0
)
;
    }
    frontAndBack
    {
        type            empty;
    }
}


// ************************************************************************* //
