/*--------------------------------*- C++ -*----------------------------------*\
| =========                 |                                                 |
| \\      /  F ield         | OpenFOAM: The Open Source CFD Toolbox           |
|  \\    /   O peration     | Version:  4.1                                   |
|   \\  /    A nd           | Web:      www.OpenFOAM.org                      |
|    \\/     M anipulation  |                                                 |
\*---------------------------------------------------------------------------*/
FoamFile
{
    version     2.0;
    format      ascii;
    class       volScalarField;
    location    "5.5";
    object      p;
}
// * * * * * * * * * * * * * * * * * * * * * * * * * * * * * * * * * * * * * //

dimensions      [0 2 -2 0 0 0 0];

internalField   nonuniform List<scalar> 
400
(
3.81373e-08
-9.25988e-05
-0.000225769
-0.000661731
-0.00169841
-0.00330362
-0.00517192
-0.0069525
-0.00838887
-0.00936216
-0.00978817
-0.00959897
-0.00873423
-0.00712243
-0.00470365
-0.0015318
0.00213587
0.00561471
0.00792572
0.00859778
0.000136892
-8.42524e-06
-0.000326827
-0.00108775
-0.00242118
-0.00419419
-0.00607642
-0.00778724
-0.0091686
-0.0100889
-0.0104822
-0.0103258
-0.00959588
-0.00819919
-0.00606939
-0.00318904
0.000281723
0.00382978
0.00645757
0.00753131
0.000124082
-0.000218131
-0.000919649
-0.00215832
-0.00390623
-0.00587258
-0.00774773
-0.00938402
-0.0106702
-0.0114683
-0.0117763
-0.0116018
-0.0109458
-0.00978483
-0.00805378
-0.00567842
-0.00265484
0.000768622
0.00370512
0.00519116
-0.000371498
-0.000933263
-0.00205774
-0.00377636
-0.00586156
-0.00792877
-0.00973674
-0.0111586
-0.0121382
-0.0127127
-0.0129008
-0.0127045
-0.0121374
-0.0112007
-0.00986598
-0.00805696
-0.00566354
-0.00267742
0.000246274
0.00187182
-0.00147719
-0.00221796
-0.00365063
-0.00567683
-0.00787418
-0.00983128
-0.0113898
-0.0125339
-0.0132891
-0.0137061
-0.0138033
-0.013594
-0.0130972
-0.0123304
-0.0112952
-0.00995038
-0.00817517
-0.00581617
-0.00319287
-0.00163155
-0.00308576
-0.00389522
-0.00544555
-0.0075347
-0.00963363
-0.0113599
-0.012651
-0.0135609
-0.0141567
-0.0144753
-0.0145289
-0.0143321
-0.0138971
-0.01325
-0.0124134
-0.0113828
-0.0101021
-0.00834585
-0.00626594
-0.00480713
-0.00483772
-0.00564123
-0.00716302
-0.00914347
-0.0110381
-0.012517
-0.0135799
-0.014323
-0.0148118
-0.015072
-0.0151097
-0.0149338
-0.0145538
-0.0139955
-0.0132929
-0.0124635
-0.0115168
-0.0102237
-0.00869918
-0.00741439
-0.00641254
-0.00715593
-0.00857348
-0.0103896
-0.0120687
-0.0133388
-0.0142335
-0.0148616
-0.0152781
-0.0155006
-0.0155323
-0.0153748
-0.0150389
-0.0145482
-0.013941
-0.013236
-0.0125103
-0.0115318
-0.0104716
-0.0093677
-0.00758634
-0.00826945
-0.00956686
-0.0112335
-0.0127372
-0.0138586
-0.0146443
-0.0151973
-0.0155649
-0.0157613
-0.0157877
-0.015645
-0.015341
-0.0148975
-0.0143562
-0.0137153
-0.0131504
-0.0123457
-0.0116121
-0.0106909
-0.00829097
-0.00889931
-0.0101003
-0.0116602
-0.013052
-0.0140939
-0.0148275
-0.0153409
-0.0156794
-0.0158582
-0.01588
-0.0157447
-0.0154599
-0.0150428
-0.0145421
-0.0139083
-0.0134809
-0.0126992
-0.0122564
-0.0114164
-0.00849712
-0.00906546
-0.0101866
-0.011678
-0.0130242
-0.0140578
-0.0147932
-0.0153009
-0.0156299
-0.0158001
-0.0158174
-0.015682
-0.0154023
-0.0149912
-0.0145011
-0.0138414
-0.0135117
-0.0126283
-0.0124845
-0.0115718
-0.00822545
-0.0087819
-0.00985711
-0.011293
-0.0126706
-0.013752
-0.0145372
-0.0150767
-0.0154207
-0.0155951
-0.0156098
-0.0154689
-0.0151803
-0.0147547
-0.0142362
-0.0135677
-0.0131873
-0.0122347
-0.0123339
-0.011165
-0.00760717
-0.00814617
-0.00918443
-0.0105538
-0.0119971
-0.013173
-0.0140514
-0.0146622
-0.0150513
-0.0152484
-0.0152685
-0.015117
-0.0148058
-0.0143427
-0.013773
-0.0130624
-0.012557
-0.0115781
-0.0117843
-0.0102694
-0.00678986
-0.00725642
-0.00822494
-0.00952492
-0.0109921
-0.0122909
-0.0133072
-0.0140372
-0.0145109
-0.0147569
-0.0147953
-0.0146337
-0.0142891
-0.0137677
-0.0131207
-0.0123238
-0.0116664
-0.01067
-0.0108787
-0.00905525
-0.0059561
-0.00627907
-0.00708369
-0.00826746
-0.00970244
-0.0111078
-0.0122903
-0.0131842
-0.0137869
-0.0141147
-0.0141917
-0.0140275
-0.0136442
-0.0130489
-0.0122982
-0.0113799
-0.0105602
-0.00950508
-0.00967364
-0.00762754
-0.00523429
-0.00530257
-0.0058464
-0.00682711
-0.00816777
-0.00964115
-0.0109998
-0.0120941
-0.0128704
-0.0133194
-0.0134627
-0.0133144
-0.0129035
-0.0122331
-0.0113633
-0.0103026
-0.00928623
-0.00806615
-0.00813117
-0.00564524
-0.0047428
-0.00450793
-0.00467968
-0.00535234
-0.00652059
-0.00800556
-0.00951821
-0.0108222
-0.0118067
-0.0124213
-0.0126777
-0.0125838
-0.0121681
-0.0114345
-0.01044
-0.00919587
-0.00787969
-0.00627871
-0.00577042
-0.00144715
-0.00432084
-0.0037787
-0.0036013
-0.00392621
-0.00490739
-0.00638668
-0.00802231
-0.00949614
-0.0106656
-0.0114514
-0.0118387
-0.0118234
-0.0114363
-0.0106813
-0.00958126
-0.00810136
-0.00629011
-0.00380088
-0.00127873
0.00813013
-0.00566113
-0.00398058
-0.00308167
-0.00295874
-0.00377063
-0.00524185
-0.00696257
-0.00857873
-0.00989532
-0.0108245
-0.0113322
-0.0114233
-0.0110888
-0.0103235
-0.00903467
-0.00711331
-0.00439317
-5.26325e-05
0.0063896
0.0237145
-0.00101843
0.00051521
-0.000305389
-0.00136692
-0.00270951
-0.00438793
-0.00622732
-0.00797235
-0.00939875
-0.0104046
-0.0109424
-0.0110141
-0.0106001
-0.00967721
-0.00815796
-0.00584447
-0.00183161
0.00506892
0.0161847
0.0352536
)
;

boundaryField
{
    movingWall
    {
        type            zeroGradient;
    }
    fixedWalls
    {
        type            zeroGradient;
    }
    frontAndBack
    {
        type            empty;
    }
}


// ************************************************************************* //
