/*--------------------------------*- C++ -*----------------------------------*\
| =========                 |                                                 |
| \\      /  F ield         | OpenFOAM: The Open Source CFD Toolbox           |
|  \\    /   O peration     | Version:  4.1                                   |
|   \\  /    A nd           | Web:      www.OpenFOAM.org                      |
|    \\/     M anipulation  |                                                 |
\*---------------------------------------------------------------------------*/
FoamFile
{
    version     2.0;
    format      ascii;
    class       surfaceScalarField;
    location    "5.5";
    object      phi;
}
// * * * * * * * * * * * * * * * * * * * * * * * * * * * * * * * * * * * * * //

dimensions      [0 3 -1 0 0 0 0];

internalField   nonuniform List<scalar> 
760
(
-2.29754e-08
2.29717e-08
-4.35983e-07
4.13008e-07
-1.32394e-06
8.87953e-07
-2.58485e-06
1.26092e-06
-3.94106e-06
1.35621e-06
-5.22242e-06
1.28136e-06
-6.32216e-06
1.09974e-06
-7.20209e-06
8.79928e-07
-7.83962e-06
6.37531e-07
-8.2778e-06
4.38186e-07
-8.5116e-06
2.33796e-07
-8.56513e-06
5.35274e-08
-8.4115e-06
-1.53622e-07
-8.05893e-06
-3.52577e-07
-7.42419e-06
-6.3474e-07
-6.45521e-06
-9.68974e-07
-5.0684e-06
-1.38681e-06
-3.29572e-06
-1.77268e-06
-1.41383e-06
-1.88189e-06
-1.41383e-06
-5.72335e-07
5.95307e-07
-1.56004e-06
1.40071e-06
-2.84343e-06
2.17135e-06
-4.16923e-06
2.58671e-06
-5.40604e-06
2.59302e-06
-6.46021e-06
2.33553e-06
-7.29409e-06
1.93361e-06
-7.91744e-06
1.50329e-06
-8.3769e-06
1.09699e-06
-8.65298e-06
7.14261e-07
-8.75573e-06
3.36547e-07
-8.66639e-06
-3.58076e-08
-8.4595e-06
-3.6052e-07
-8.07346e-06
-7.38614e-07
-7.49458e-06
-1.21362e-06
-6.63733e-06
-1.82623e-06
-5.42821e-06
-2.59593e-06
-3.7887e-06
-3.41219e-06
-1.83648e-06
-3.83411e-06
-3.25031e-06
-1.01121e-06
1.60652e-06
-2.27032e-06
2.65981e-06
-3.54783e-06
3.44886e-06
-4.70234e-06
3.74122e-06
-5.6725e-06
3.56318e-06
-6.40938e-06
3.07241e-06
-6.93476e-06
2.459e-06
-7.25023e-06
1.81876e-06
-7.40661e-06
1.25337e-06
-7.41991e-06
7.27563e-07
-7.35899e-06
2.75626e-07
-7.23756e-06
-1.57246e-07
-7.02661e-06
-5.71467e-07
-6.71906e-06
-1.04616e-06
-6.3069e-06
-1.62578e-06
-5.72757e-06
-2.40555e-06
-4.87728e-06
-3.44622e-06
-3.60591e-06
-4.68357e-06
-1.9211e-06
-5.51892e-06
-5.17141e-06
-1.19622e-06
2.80274e-06
-2.44671e-06
3.91031e-06
-3.56297e-06
4.56512e-06
-4.48401e-06
4.66227e-06
-5.13746e-06
4.21663e-06
-5.51657e-06
3.45152e-06
-5.68042e-06
2.62284e-06
-5.71485e-06
1.85319e-06
-5.68733e-06
1.22585e-06
-5.63374e-06
6.7397e-07
-5.54336e-06
1.85252e-07
-5.41417e-06
-2.86442e-07
-5.22819e-06
-7.57442e-07
-4.99893e-06
-1.27542e-06
-4.72211e-06
-1.90261e-06
-4.38557e-06
-2.74209e-06
-3.90704e-06
-3.92475e-06
-3.05349e-06
-5.53712e-06
-1.7179e-06
-6.85451e-06
-6.8893e-06
-1.11931e-06
3.92204e-06
-2.20807e-06
4.99906e-06
-3.11652e-06
5.47357e-06
-3.77307e-06
5.31882e-06
-4.13696e-06
4.58052e-06
-4.27388e-06
3.58843e-06
-4.29845e-06
2.64741e-06
-4.29566e-06
1.8504e-06
-4.26607e-06
1.19626e-06
-4.21076e-06
6.18657e-07
-4.12205e-06
9.65414e-08
-3.98828e-06
-4.20213e-07
-3.80657e-06
-9.39154e-07
-3.58865e-06
-1.49333e-06
-3.35493e-06
-2.13633e-06
-3.12577e-06
-2.97125e-06
-2.87156e-06
-4.17896e-06
-2.37157e-06
-6.0371e-06
-1.41073e-06
-7.81535e-06
-8.30004e-06
-9.18526e-07
4.84057e-06
-1.79102e-06
5.87156e-06
-2.47227e-06
6.15482e-06
-2.91388e-06
5.76043e-06
-3.11352e-06
4.78016e-06
-3.17367e-06
3.64859e-06
-3.18463e-06
2.65837e-06
-3.19269e-06
1.85846e-06
-3.19242e-06
1.196e-06
-3.17112e-06
5.97355e-07
-3.11066e-06
3.60788e-08
-3.00576e-06
-5.25111e-07
-2.84726e-06
-1.09766e-06
-2.64004e-06
-1.70055e-06
-2.407e-06
-2.36938e-06
-2.19409e-06
-3.18415e-06
-2.0416e-06
-4.33145e-06
-1.81356e-06
-6.26515e-06
-1.10714e-06
-8.52177e-06
-9.40718e-06
-6.82002e-07
5.52257e-06
-1.30992e-06
6.49948e-06
-1.78808e-06
6.63298e-06
-2.07912e-06
6.05146e-06
-2.20383e-06
4.90487e-06
-2.24899e-06
3.69374e-06
-2.2716e-06
2.68098e-06
-2.29713e-06
1.88399e-06
-2.3144e-06
1.21326e-06
-2.31245e-06
5.95411e-07
-2.27617e-06
-2.03681e-10
-2.19975e-06
-6.01535e-07
-2.07784e-06
-1.21956e-06
-1.91129e-06
-1.8671e-06
-1.71481e-06
-2.56585e-06
-1.51745e-06
-3.38152e-06
-1.38572e-06
-4.46318e-06
-1.28417e-06
-6.3667e-06
-8.7689e-07
-8.92905e-06
-1.02841e-05
-4.23955e-07
5.94653e-06
-8.33957e-07
6.90948e-06
-1.14388e-06
6.9429e-06
-1.33344e-06
6.24102e-06
-1.42528e-06
4.99671e-06
-1.46614e-06
3.7346e-06
-1.4965e-06
2.71134e-06
-1.52565e-06
1.91314e-06
-1.54593e-06
1.23354e-06
-1.55134e-06
6.00821e-07
-1.53318e-06
-1.83593e-08
-1.48608e-06
-6.48639e-07
-1.40662e-06
-1.29902e-06
-1.29317e-06
-1.98055e-06
-1.15403e-06
-2.705e-06
-1.0087e-06
-3.52684e-06
-9.24705e-07
-4.54718e-06
-8.87487e-07
-6.40392e-06
-6.61846e-07
-9.15469e-06
-1.09459e-05
-1.91429e-07
6.13796e-06
-3.91678e-07
7.10973e-06
-5.55613e-07
7.10684e-06
-6.6682e-07
6.35223e-06
-7.34676e-07
5.06456e-06
-7.78293e-07
3.77822e-06
-8.12078e-07
2.74512e-06
-8.3638e-07
1.93744e-06
-8.51902e-07
1.24906e-06
-8.59029e-07
6.07948e-07
-8.56008e-07
-2.138e-08
-8.38155e-07
-6.66493e-07
-8.03438e-07
-1.33374e-06
-7.46895e-07
-2.03709e-06
-6.72646e-07
-2.77924e-06
-5.8589e-07
-3.6136e-06
-5.50642e-07
-4.58242e-06
-5.64461e-07
-6.3901e-06
-5.13367e-07
-9.20578e-06
-1.14593e-05
5.26383e-08
6.08532e-06
-1.66223e-09
7.16403e-06
-4.15133e-08
7.14669e-06
-7.68019e-08
6.38752e-06
-1.07507e-07
5.09527e-06
-1.48751e-07
3.81946e-06
-1.83177e-07
2.77955e-06
-2.03198e-07
1.95747e-06
-2.14036e-07
1.2599e-06
-2.22239e-07
6.16151e-07
-2.31345e-07
-1.22732e-08
-2.402e-07
-6.57638e-07
-2.47449e-07
-1.32649e-06
-2.49396e-07
-2.03515e-06
-2.38814e-07
-2.78983e-06
-2.37984e-07
-3.61443e-06
-2.59098e-07
-4.56131e-06
-3.38706e-07
-6.31049e-06
-3.84045e-07
-9.16044e-06
-1.18433e-05
2.55251e-07
5.83007e-06
4.09723e-07
7.00956e-06
5.19844e-07
7.03657e-06
5.29748e-07
6.37762e-06
4.97908e-07
5.12711e-06
4.51477e-07
3.86589e-06
4.15519e-07
2.81551e-06
3.97237e-07
1.97575e-06
3.88155e-07
1.26898e-06
3.76961e-07
6.27346e-07
3.56517e-07
8.171e-09
3.22495e-07
-6.23616e-07
2.75894e-07
-1.27989e-06
2.19965e-07
-1.97922e-06
1.66411e-07
-2.73627e-06
7.28747e-08
-3.52089e-06
3.28756e-08
-4.52131e-06
-1.60215e-07
-6.1174e-06
-3.07617e-07
-9.01304e-06
-1.21509e-05
4.58003e-07
5.37207e-06
7.69225e-07
6.69834e-06
1.01071e-06
6.79508e-06
1.10525e-06
6.28308e-06
1.09522e-06
5.13714e-06
1.05549e-06
3.90562e-06
1.01954e-06
2.85146e-06
9.99299e-07
1.99598e-06
9.86407e-07
1.28188e-06
9.67734e-07
6.46019e-07
9.32894e-07
4.30113e-08
8.74628e-07
-5.6535e-07
7.90969e-07
-1.19623e-06
6.84148e-07
-1.8724e-06
5.53021e-07
-2.60515e-06
4.16908e-07
-3.38478e-06
2.46508e-07
-4.35091e-06
-3.13823e-08
-5.83951e-06
-2.19069e-07
-8.82535e-06
-1.237e-05
6.33386e-07
4.73868e-06
1.11658e-06
6.21514e-06
1.47653e-06
6.43514e-06
1.69023e-06
6.06938e-06
1.73927e-06
5.08811e-06
1.72041e-06
3.92448e-06
1.68454e-06
2.88733e-06
1.6539e-06
2.02662e-06
1.6267e-06
1.30908e-06
1.59179e-06
6.8093e-07
1.5362e-06
9.85984e-08
1.45086e-06
-4.80009e-07
1.32938e-06
-1.07475e-06
1.16968e-06
-1.7127e-06
9.72951e-07
-2.40841e-06
7.61207e-07
-3.17303e-06
4.88246e-07
-4.07795e-06
1.66329e-07
-5.51759e-06
-1.00237e-07
-8.55879e-06
-1.24702e-05
7.65474e-07
3.97321e-06
1.39653e-06
5.58408e-06
1.88109e-06
5.95058e-06
2.22863e-06
5.72183e-06
2.38039e-06
4.93635e-06
2.41465e-06
3.89022e-06
2.40237e-06
2.89961e-06
2.3762e-06
2.05279e-06
2.34113e-06
1.34415e-06
2.29049e-06
7.31574e-07
2.21112e-06
1.77973e-07
2.09327e-06
-3.62164e-07
1.92813e-06
-9.09607e-07
1.71243e-06
-1.497e-06
1.44357e-06
-2.13955e-06
1.13635e-06
-2.86582e-06
7.59055e-07
-3.70065e-06
3.76868e-07
-5.1354e-06
5.70427e-08
-8.23896e-06
-1.24132e-05
8.26735e-07
3.14647e-06
1.60457e-06
4.80624e-06
2.24184e-06
5.31332e-06
2.74324e-06
5.22043e-06
3.05458e-06
4.62501e-06
3.19871e-06
3.74609e-06
3.24415e-06
2.85417e-06
3.23737e-06
2.05956e-06
3.19621e-06
1.38531e-06
3.1237e-06
8.0409e-07
3.0108e-06
2.90868e-07
2.84835e-06
-1.99714e-07
2.62819e-06
-6.89448e-07
2.3462e-06
-1.21501e-06
1.98967e-06
-1.78302e-06
1.56702e-06
-2.44317e-06
1.06942e-06
-3.20305e-06
6.04898e-07
-4.67088e-06
1.83942e-07
-7.81801e-06
-1.22293e-05
8.07026e-07
2.33944e-06
1.63693e-06
3.97634e-06
2.40732e-06
4.54292e-06
3.07356e-06
4.55419e-06
3.57546e-06
4.12311e-06
3.89407e-06
3.42748e-06
4.06537e-06
2.68287e-06
4.1346e-06
1.99033e-06
4.12862e-06
1.39128e-06
4.06062e-06
8.7209e-07
3.92902e-06
4.2247e-07
3.73662e-06
-7.31527e-09
3.45693e-06
-4.0976e-07
3.09799e-06
-8.56059e-07
2.63462e-06
-1.31966e-06
2.06976e-06
-1.87831e-06
1.43227e-06
-2.56556e-06
8.54739e-07
-4.09335e-06
3.33869e-07
-7.29714e-06
-1.18954e-05
5.56668e-07
1.78278e-06
1.51345e-06
3.01957e-06
2.44702e-06
3.60935e-06
3.31485e-06
3.68636e-06
4.03939e-06
3.39857e-06
4.56889e-06
2.89798e-06
4.91195e-06
2.33981e-06
5.10404e-06
1.79824e-06
5.16916e-06
1.32616e-06
5.13614e-06
9.05118e-07
5.00388e-06
5.54722e-07
4.77487e-06
2.21702e-07
4.42736e-06
-6.22496e-08
3.98958e-06
-4.18287e-07
3.40349e-06
-7.33565e-07
2.70393e-06
-1.17874e-06
1.9407e-06
-1.80233e-06
1.23811e-06
-3.39076e-06
5.30995e-07
-6.59002e-06
-1.13644e-05
1.00919e-07
1.68186e-06
9.31128e-07
2.18936e-06
1.95803e-06
2.58245e-06
3.03565e-06
2.60875e-06
4.00697e-06
2.42724e-06
4.7877e-06
2.11726e-06
5.35424e-06
1.77326e-06
5.72693e-06
1.42555e-06
5.92093e-06
1.13216e-06
5.97554e-06
8.50509e-07
5.88825e-06
6.42014e-07
5.69741e-06
4.12536e-07
5.3848e-06
2.50361e-07
4.98113e-06
-1.46128e-08
4.40863e-06
-1.61064e-07
3.76057e-06
-5.30679e-07
3.02463e-06
-1.0664e-06
2.22661e-06
-2.59274e-06
1.06531e-06
-5.42872e-06
-1.02991e-05
-5.85914e-07
2.26777e-06
1.68132e-07
1.43531e-06
1.49361e-06
1.25697e-06
2.85867e-06
1.24369e-06
4.06943e-06
1.21648e-06
5.07147e-06
1.11522e-06
5.86195e-06
9.82776e-07
6.45803e-06
8.29481e-07
6.88841e-06
7.01779e-07
7.16599e-06
5.72934e-07
7.33437e-06
4.73628e-07
7.38293e-06
3.63979e-07
7.35408e-06
2.79207e-07
7.17726e-06
1.62214e-07
6.95042e-06
6.57693e-08
6.60291e-06
-1.83169e-07
6.05516e-06
-5.18649e-07
5.01549e-06
-1.55307e-06
2.79252e-06
-3.20575e-06
-7.50657e-06
2.26777e-06
3.70308e-06
4.96005e-06
6.20374e-06
7.42022e-06
8.53544e-06
9.51822e-06
1.03477e-05
1.10495e-05
1.16224e-05
1.2096e-05
1.246e-05
1.27392e-05
1.29014e-05
1.29672e-05
1.2784e-05
1.22654e-05
1.07123e-05
7.50657e-06
)
;

boundaryField
{
    movingWall
    {
        type            calculated;
        value           uniform 0;
    }
    fixedWalls
    {
        type            calculated;
        value           uniform 0;
    }
    frontAndBack
    {
        type            empty;
        value           nonuniform 0();
    }
}


// ************************************************************************* //
