/*--------------------------------*- C++ -*----------------------------------*\
| =========                 |                                                 |
| \\      /  F ield         | OpenFOAM: The Open Source CFD Toolbox           |
|  \\    /   O peration     | Version:  4.1                                   |
|   \\  /    A nd           | Web:      www.OpenFOAM.org                      |
|    \\/     M anipulation  |                                                 |
\*---------------------------------------------------------------------------*/
FoamFile
{
    version     2.0;
    format      ascii;
    class       volVectorField;
    location    "5.5";
    object      U;
}
// * * * * * * * * * * * * * * * * * * * * * * * * * * * * * * * * * * * * * //

dimensions      [0 1 -1 0 0 0 0];

internalField   nonuniform List<vector> 
400
(
(0.00147427 -0.00271416 0)
(-0.00253991 0.00149922 0)
(-0.0135565 0.00674382 0)
(-0.0370707 0.0132199 0)
(-0.0666003 0.0151119 0)
(-0.0943775 0.0138288 0)
(-0.11858 0.0119138 0)
(-0.137773 0.00960565 0)
(-0.15235 0.00753996 0)
(-0.16275 0.00526374 0)
(-0.169193 0.00332086 0)
(-0.171989 0.0014521 0)
(-0.171729 -0.00130495 0)
(-0.165775 -0.00351092 0)
(-0.155486 -0.00724545 0)
(-0.137825 -0.0109343 0)
(-0.113494 -0.0156073 0)
(-0.0813221 -0.0187878 0)
(-0.0461863 -0.0181488 0)
(-0.0150435 -0.0100789 0)
(-0.00420154 0.00398758 0)
(-0.0183253 0.0166209 0)
(-0.0418202 0.0310453 0)
(-0.0701875 0.0390393 0)
(-0.0982688 0.0397395 0)
(-0.121822 0.0363228 0)
(-0.140303 0.030782 0)
(-0.153519 0.024807 0)
(-0.164857 0.0173418 0)
(-0.171282 0.0116593 0)
(-0.175359 0.00556058 0)
(-0.175361 0.000299764 0)
(-0.17281 -0.00583532 0)
(-0.166606 -0.0124288 0)
(-0.156525 -0.0209256 0)
(-0.140974 -0.0313686 0)
(-0.119268 -0.0438494 0)
(-0.0901698 -0.0555846 0)
(-0.0562716 -0.0590354 0)
(-0.0205274 -0.0446102 0)
(-0.009213 0.0216072 0)
(-0.0309925 0.0412758 0)
(-0.0578616 0.0566788 0)
(-0.0842889 0.063244 0)
(-0.10716 0.0611763 0)
(-0.123662 0.0536814 0)
(-0.134962 0.0432414 0)
(-0.143775 0.0321662 0)
(-0.147915 0.0231397 0)
(-0.148556 0.0139577 0)
(-0.148328 0.00579508 0)
(-0.146211 -0.00243341 0)
(-0.143811 -0.0105713 0)
(-0.138389 -0.0199394 0)
(-0.131573 -0.0314224 0)
(-0.120604 -0.0466544 0)
(-0.105311 -0.0659245 0)
(-0.0827687 -0.0869855 0)
(-0.0549532 -0.0991591 0)
(-0.0213111 -0.0884831 0)
(-0.0119555 0.0441616 0)
(-0.035894 0.0661005 0)
(-0.0613316 0.080022 0)
(-0.0837029 0.0834395 0)
(-0.0998373 0.0772711 0)
(-0.108932 0.0646942 0)
(-0.113702 0.0505669 0)
(-0.114561 0.0370387 0)
(-0.113442 0.0248797 0)
(-0.113665 0.0141211 0)
(-0.111832 0.00478511 0)
(-0.109933 -0.00415595 0)
(-0.106725 -0.0130013 0)
(-0.102951 -0.0230926 0)
(-0.0982548 -0.0356165 0)
(-0.0923046 -0.052854 0)
(-0.0831581 -0.0767244 0)
(-0.0676398 -0.106277 0)
(-0.0473379 -0.127898 0)
(-0.0188254 -0.12515 0)
(-0.0116937 0.0664076 0)
(-0.0337238 0.0881495 0)
(-0.0557062 0.0996038 0)
(-0.0727559 0.0992595 0)
(-0.0823673 0.0877126 0)
(-0.0854811 0.0705808 0)
(-0.0860031 0.0532737 0)
(-0.0854869 0.0377354 0)
(-0.0854068 0.0246624 0)
(-0.0848851 0.0132007 0)
(-0.0834606 0.0029597 0)
(-0.081268 -0.00683155 0)
(-0.0780732 -0.0165515 0)
(-0.0741917 -0.026997 0)
(-0.0700008 -0.0394796 0)
(-0.0658532 -0.0564063 0)
(-0.0611626 -0.0816854 0)
(-0.0506242 -0.118713 0)
(-0.0379225 -0.149705 0)
(-0.0157678 -0.155366 0)
(-0.00942744 0.0865483 0)
(-0.0280926 0.108233 0)
(-0.0453759 0.115937 0)
(-0.0575726 0.110526 0)
(-0.0626631 0.0937386 0)
(-0.0630966 0.0728686 0)
(-0.0630387 0.0535968 0)
(-0.0632293 0.0374239 0)
(-0.0637955 0.0240755 0)
(-0.0637137 0.0121238 0)
(-0.0630327 0.00111827 0)
(-0.0613231 -0.00974776 0)
(-0.0586318 -0.0207218 0)
(-0.0549542 -0.0322002 0)
(-0.0506677 -0.0449731 0)
(-0.0463771 -0.0609102 0)
(-0.0436577 -0.0842519 0)
(-0.0363208 -0.123499 0)
(-0.0315349 -0.165503 0)
(-0.00924512 -0.17919 0)
(-0.00707982 0.103208 0)
(-0.0210104 0.12319 0)
(-0.0333088 0.127257 0)
(-0.0418341 0.117975 0)
(-0.0442966 0.0971 0)
(-0.044141 0.0738456 0)
(-0.0445549 0.0537354 0)
(-0.0452988 0.0376341 0)
(-0.0461304 0.0241854 0)
(-0.0463908 0.0119113 0)
(-0.0461016 0.000244494 0)
(-0.0449019 -0.0114848 0)
(-0.0428401 -0.023476 0)
(-0.0398972 -0.0360331 0)
(-0.0363001 -0.0496624 0)
(-0.0320991 -0.065759 0)
(-0.0305567 -0.087543 0)
(-0.0236188 -0.125855 0)
(-0.0249996 -0.175689 0)
(-0.00640135 -0.198183 0)
(-0.00397446 0.114655 0)
(-0.0135832 0.13462 0)
(-0.0214704 0.136381 0)
(-0.0272651 0.123361 0)
(-0.0282882 0.099485 0)
(-0.028328 0.0746359 0)
(-0.0291053 0.0541498 0)
(-0.0299735 0.038129 0)
(-0.0307525 0.0245487 0)
(-0.0310935 0.0119643 0)
(-0.0310086 -0.00027058 0)
(-0.0302892 -0.0126736 0)
(-0.0289402 -0.0254304 0)
(-0.0269467 -0.0387669 0)
(-0.024551 -0.0529769 0)
(-0.0208542 -0.069262 0)
(-0.0211541 -0.0898654 0)
(-0.0144333 -0.127567 0)
(-0.0206641 -0.181096 0)
(-0.00236414 -0.21288 0)
(-0.00175832 0.122015 0)
(-0.00633255 0.140549 0)
(-0.0105263 0.140626 0)
(-0.0138821 0.126106 0)
(-0.0142471 0.100697 0)
(-0.0146278 0.0751872 0)
(-0.0155761 0.0546387 0)
(-0.0163363 0.0386019 0)
(-0.0169064 0.0249052 0)
(-0.0171902 0.0121236 0)
(-0.0172417 -0.00045154 0)
(-0.0169718 -0.0132684 0)
(-0.0163761 -0.0265311 0)
(-0.0153939 -0.0404536 0)
(-0.0144829 -0.0551664 0)
(-0.0113227 -0.0716692 0)
(-0.0137073 -0.0913125 0)
(-0.00671266 -0.127896 0)
(-0.0172747 -0.183456 0)
(-0.000232467 -0.224504 0)
(0.00173624 0.123194 0)
(0.000308622 0.144247 0)
(-0.000489065 0.144079 0)
(-0.0018067 0.128237 0)
(-0.00174977 0.102169 0)
(-0.00231567 0.076256 0)
(-0.00321036 0.0553741 0)
(-0.00380488 0.0390358 0)
(-0.00417437 0.0251652 0)
(-0.00438357 0.0122928 0)
(-0.00454966 -0.000379028 0)
(-0.00467403 -0.0133026 0)
(-0.00480964 -0.0267382 0)
(-0.00478316 -0.0409356 0)
(-0.00549899 -0.0559696 0)
(-0.00297421 -0.0724475 0)
(-0.00802242 -0.0918708 0)
(-0.000577148 -0.126882 0)
(-0.0150204 -0.183713 0)
(0.00249462 -0.233414 0)
(0.00374217 0.120531 0)
(0.00637029 0.142617 0)
(0.00899235 0.142337 0)
(0.00976589 0.127535 0)
(0.010302 0.102116 0)
(0.00980203 0.0766549 0)
(0.00885972 0.0557786 0)
(0.00822428 0.0392551 0)
(0.00789021 0.0252873 0)
(0.0076739 0.0124576 0)
(0.0073739 -8.47297e-05 0)
(0.0069048 -0.0128572 0)
(0.00609967 -0.02617 0)
(0.00528115 -0.0403284 0)
(0.00305894 -0.055505 0)
(0.004772 -0.0716007 0)
(-0.00296325 -0.0911582 0)
(0.00519286 -0.123809 0)
(-0.0137122 -0.182116 0)
(0.00443113 -0.240157 0)
(0.00603394 0.11418 0)
(0.0118908 0.139423 0)
(0.0176587 0.140227 0)
(0.0204588 0.128363 0)
(0.0219706 0.103132 0)
(0.0218031 0.0779575 0)
(0.021018 0.0567551 0)
(0.0203472 0.0397243 0)
(0.0199396 0.0254968 0)
(0.0196097 0.012719 0)
(0.019089 0.000457659 0)
(0.0182665 -0.0119483 0)
(0.0168055 -0.0248647 0)
(0.0152159 -0.0386899 0)
(0.0117231 -0.0536592 0)
(0.0121959 -0.0694107 0)
(0.00205079 -0.088907 0)
(0.0105326 -0.119605 0)
(-0.0129757 -0.178666 0)
(0.00734443 -0.244746 0)
(0.00793371 0.102828 0)
(0.0169423 0.130168 0)
(0.0262579 0.132401 0)
(0.0308473 0.123824 0)
(0.0342172 0.102212 0)
(0.03488 0.0778453 0)
(0.034373 0.0569492 0)
(0.0335994 0.0399033 0)
(0.0329263 0.0256988 0)
(0.0322959 0.0131376 0)
(0.0313877 0.00130764 0)
(0.0301509 -0.0105498 0)
(0.0279428 -0.0228297 0)
(0.0256774 -0.0360218 0)
(0.0207907 -0.0503936 0)
(0.0200643 -0.0659125 0)
(0.00761051 -0.0843517 0)
(0.0157284 -0.113606 0)
(-0.0121019 -0.173492 0)
(0.0105786 -0.247668 0)
(0.00989866 0.0892435 0)
(0.0212118 0.120952 0)
(0.0330064 0.126572 0)
(0.0404959 0.11983 0)
(0.0457494 0.102063 0)
(0.0480648 0.0792358 0)
(0.0484675 0.0583936 0)
(0.0480596 0.0409894 0)
(0.0473575 0.0265689 0)
(0.046513 0.0140937 0)
(0.0451485 0.00268638 0)
(0.0434559 -0.00852153 0)
(0.0403181 -0.0199597 0)
(0.0373483 -0.0322325 0)
(0.0308671 -0.0456756 0)
(0.0288997 -0.060594 0)
(0.0138588 -0.0779598 0)
(0.0210093 -0.107006 0)
(-0.0106794 -0.167927 0)
(0.015023 -0.249531 0)
(0.010147 0.071526 0)
(0.024221 0.103834 0)
(0.0387479 0.112872 0)
(0.0493351 0.1098 0)
(0.0575372 0.0959915 0)
(0.0624143 0.0766537 0)
(0.0645906 0.0576126 0)
(0.0651218 0.0410454 0)
(0.0645954 0.0271477 0)
(0.0635416 0.0152058 0)
(0.0614836 0.00452297 0)
(0.059178 -0.00578866 0)
(0.0548015 -0.0160658 0)
(0.0509794 -0.0271297 0)
(0.0426681 -0.039242 0)
(0.0391408 -0.0531349 0)
(0.0210272 -0.0692248 0)
(0.0268634 -0.0986647 0)
(-0.00879064 -0.162161 0)
(0.0199914 -0.251227 0)
(0.010334 0.0560113 0)
(0.0241811 0.0909443 0)
(0.0407109 0.10208 0)
(0.0544784 0.101184 0)
(0.0658796 0.0908841 0)
(0.0743062 0.0747144 0)
(0.0795085 0.057628 0)
(0.0822844 0.0420517 0)
(0.0829313 0.0288241 0)
(0.082496 0.0174902 0)
(0.080058 0.00759503 0)
(0.0774933 -0.0017201 0)
(0.0718966 -0.0107136 0)
(0.0671597 -0.0204553 0)
(0.0568392 -0.030842 0)
(0.0509242 -0.0433735 0)
(0.0294808 -0.0583525 0)
(0.0336905 -0.0893869 0)
(-0.00710834 -0.155546 0)
(0.026044 -0.25173 0)
(0.00327062 0.0358549 0)
(0.0213554 0.066366 0)
(0.0403001 0.0799921 0)
(0.0574598 0.0823103 0)
(0.0728689 0.0760658 0)
(0.085367 0.0646166 0)
(0.0944355 0.0516413 0)
(0.100384 0.0389359 0)
(0.102945 0.0275826 0)
(0.104002 0.0177 0)
(0.10149 0.00920898 0)
(0.0990247 0.00139578 0)
(0.0918751 -0.00584345 0)
(0.0861689 -0.0135718 0)
(0.073528 -0.0213633 0)
(0.0649459 -0.0313326 0)
(0.0407532 -0.0452462 0)
(0.0432477 -0.0779151 0)
(-0.00395075 -0.146001 0)
(0.0341131 -0.244697 0)
(-0.00323226 0.0417406 0)
(0.00853063 0.0601671 0)
(0.0297975 0.0685949 0)
(0.0500812 0.069079 0)
(0.0695082 0.0639253 0)
(0.087275 0.0551995 0)
(0.100696 0.0455337 0)
(0.111376 0.036328 0)
(0.116247 0.028381 0)
(0.120196 0.0208856 0)
(0.118534 0.0148348 0)
(0.117516 0.00870795 0)
(0.110348 0.00400717 0)
(0.105453 -0.00161072 0)
(0.0928196 -0.00634303 0)
(0.0845389 -0.0148144 0)
(0.0622654 -0.0283015 0)
(0.0633165 -0.0621277 0)
(0.0101002 -0.125001 0)
(0.0502594 -0.216027 0)
(-0.00819717 0.0113145 0)
(-0.0105504 0.0136205 0)
(0.0172397 0.0245117 0)
(0.0437455 0.0293526 0)
(0.0683576 0.0300399 0)
(0.0910023 0.0276791 0)
(0.108512 0.0241205 0)
(0.123678 0.0195348 0)
(0.133332 0.0157897 0)
(0.141612 0.0118985 0)
(0.14507 0.00940538 0)
(0.14808 0.00619547 0)
(0.147094 0.00447973 0)
(0.145849 0.000594233 0)
(0.140055 -0.00144361 0)
(0.136101 -0.00815564 0)
(0.121958 -0.0163576 0)
(0.117127 -0.0421746 0)
(0.0603527 -0.0859394 0)
(0.0876162 -0.158828 0)
(0.0478843 0.0984559 0)
(0.0532711 0.0583062 0)
(0.0860903 0.0358681 0)
(0.112683 0.0267522 0)
(0.135996 0.0225429 0)
(0.159232 0.0196511 0)
(0.17985 0.0173473 0)
(0.198731 0.0153221 0)
(0.214124 0.0136258 0)
(0.227344 0.0122426 0)
(0.237566 0.0108665 0)
(0.245996 0.00988952 0)
(0.252052 0.0083867 0)
(0.256416 0.00751161 0)
(0.258521 0.00524225 0)
(0.256976 0.00285553 0)
(0.249873 0.000570079 0)
(0.235117 -0.00823369 0)
(0.181199 -0.0207842 0)
(0.169101 -0.116814 0)
)
;

boundaryField
{
    movingWall
    {
        type            fixedValue;
        value           uniform (1 0 0);
    }
    fixedWalls
    {
        type            noSlip;
    }
    frontAndBack
    {
        type            empty;
    }
}


// ************************************************************************* //
