/*--------------------------------*- C++ -*----------------------------------*\
| =========                 |                                                 |
| \\      /  F ield         | OpenFOAM: The Open Source CFD Toolbox           |
|  \\    /   O peration     | Version:  4.1                                   |
|   \\  /    A nd           | Web:      www.OpenFOAM.org                      |
|    \\/     M anipulation  |                                                 |
\*---------------------------------------------------------------------------*/
FoamFile
{
    version     2.0;
    format      ascii;
    class       volScalarField;
    location    "8";
    object      epsilon;
}
// * * * * * * * * * * * * * * * * * * * * * * * * * * * * * * * * * * * * * //

dimensions      [0 2 -3 0 0 0 0];

internalField   nonuniform List<scalar> 
400
(
0.00034694
0.00111681
0.00339836
0.00676355
0.00976115
0.0118196
0.0130242
0.0135733
0.0137389
0.0135604
0.0129405
0.0121812
0.0111892
0.0102601
0.00933124
0.00851558
0.00783037
0.00715998
0.00561841
0.00434324
0.000805573
0.00197105
0.00402996
0.00540367
0.00577479
0.00534175
0.00460543
0.00386702
0.00323693
0.00277805
0.00255038
0.00248221
0.00267936
0.00302011
0.00357555
0.00445379
0.00581785
0.00762366
0.00963498
0.0104668
0.00187791
0.00279678
0.00347474
0.00348025
0.00267698
0.00205634
0.00153817
0.00125009
0.00109413
0.0010275
0.00101174
0.00106404
0.00120722
0.00143981
0.00189433
0.00268851
0.00412143
0.00665506
0.0111511
0.0166028
0.00276502
0.00268972
0.00271811
0.00206614
0.00131431
0.00094936
0.000698414
0.00058002
0.000504162
0.000468088
0.000454691
0.000456858
0.000517559
0.000626607
0.000870654
0.00138234
0.0025284
0.00511752
0.0112308
0.0209044
0.00339758
0.00243135
0.00204856
0.00121583
0.000733058
0.000508072
0.000366501
0.00029703
0.000246753
0.000222922
0.000213026
0.000212407
0.000244589
0.000306183
0.00044732
0.000781067
0.00165859
0.00392545
0.0104481
0.024275
0.00403474
0.00212416
0.00150634
0.00077504
0.000451439
0.000299895
0.000208049
0.00016203
0.000129981
0.000115358
0.000110003
0.000111489
0.000132046
0.000170816
0.000256512
0.000469917
0.00111875
0.00315092
0.00984829
0.0269116
0.00470922
0.00183882
0.00113901
0.000546083
0.000306348
0.000194789
0.000130601
9.77676e-05
7.7219e-05
6.80815e-05
6.50021e-05
6.73334e-05
8.13257e-05
0.000108192
0.000164824
0.000297624
0.000753789
0.00247135
0.00920324
0.029145
0.00550929
0.00163672
0.000892292
0.000417044
0.00022959
0.000141439
9.1913e-05
6.66542e-05
5.24559e-05
4.62564e-05
4.43351e-05
4.67485e-05
5.7052e-05
7.74359e-05
0.000120088
0.000211966
0.000549957
0.00203647
0.00873655
0.0310505
0.00625809
0.00148332
0.000745319
0.000351534
0.000191668
0.000114203
7.2419e-05
5.15723e-05
4.08296e-05
3.62493e-05
3.49714e-05
3.73046e-05
4.52943e-05
6.13642e-05
9.41495e-05
0.000161368
0.000395511
0.00164024
0.00837007
0.0328314
0.00716384
0.00143454
0.000649876
0.000310797
0.000171512
0.000102092
6.43623e-05
4.57682e-05
3.63775e-05
3.23409e-05
3.13295e-05
3.3555e-05
4.00517e-05
5.38366e-05
8.09896e-05
0.000137999
0.000320046
0.00142488
0.00813095
0.0345399
0.00782986
0.00151597
0.000610833
0.000300007
0.000171735
0.000102853
6.50206e-05
4.62467e-05
3.67115e-05
3.23885e-05
3.10476e-05
3.26984e-05
3.83126e-05
5.08911e-05
7.46964e-05
0.000127
0.00027935
0.00127466
0.00799906
0.0363441
0.00844452
0.00175895
0.000627329
0.000306158
0.000177214
0.000107736
6.88895e-05
4.9165e-05
3.90857e-05
3.43913e-05
3.33445e-05
3.48741e-05
3.95269e-05
5.04037e-05
7.29449e-05
0.000123414
0.000267891
0.00122135
0.00793889
0.0383407
0.00856189
0.00216797
0.000692605
0.000327329
0.000191262
0.000119188
7.77032e-05
5.59863e-05
4.48073e-05
3.95763e-05
3.87549e-05
4.04311e-05
4.51677e-05
5.61144e-05
7.77123e-05
0.000126525
0.00026683
0.00121955
0.00805949
0.0407491
0.00839365
0.00270291
0.000856087
0.00037827
0.00021756
0.000139997
9.55181e-05
7.02014e-05
5.66055e-05
5.00759e-05
4.91132e-05
5.11052e-05
5.6316e-05
6.81793e-05
9.04696e-05
0.000144758
0.000302056
0.00136746
0.00921465
0.0437774
0.00780814
0.00317768
0.00109769
0.00048119
0.000267611
0.000170845
0.000118793
9.06646e-05
7.524e-05
6.82165e-05
6.79081e-05
7.03983e-05
7.63014e-05
8.93538e-05
0.000114846
0.000181778
0.000376335
0.00166095
0.010719
0.0481506
0.00677218
0.003466
0.00153238
0.000719955
0.000382128
0.000235849
0.00016299
0.000124604
0.000103658
9.40131e-05
9.40131e-05
9.72543e-05
0.000104835
0.000122312
0.000160226
0.000264864
0.000558093
0.00232884
0.0135306
0.054303
0.00481031
0.00325972
0.00177763
0.000979038
0.000583352
0.000377014
0.000264355
0.000202698
0.000168088
0.000150267
0.000148526
0.000152982
0.000167443
0.000209163
0.00029925
0.00052931
0.00110895
0.00402638
0.018691
0.0636089
0.00357327
0.0027975
0.00213314
0.00151339
0.00109643
0.00083067
0.000660678
0.000572128
0.000522363
0.000524994
0.000541844
0.000594863
0.000663657
0.000851536
0.00116202
0.00193599
0.00359229
0.00963513
0.0306324
0.0790645
0.00432295
0.0059648
0.00736055
0.00754606
0.00738671
0.00728497
0.00726312
0.0074059
0.00765014
0.0081443
0.00854016
0.00936072
0.0100344
0.0112839
0.0124987
0.016503
0.0225825
0.0374927
0.070312
0.110504
0.0453291
0.0894933
0.121859
0.134018
0.136319
0.13623
0.135679
0.135827
0.136101
0.13707
0.13796
0.140057
0.141934
0.144948
0.148931
0.152347
0.156255
0.161145
0.177338
0.152716
)
;

boundaryField
{
    movingWall
    {
        Cmu             0.09;
        kappa           0.41;
        E               9.8;
        type            epsilonWallFunction;
        value           nonuniform List<scalar> 
20
(
0.0453291
0.0894933
0.121859
0.134018
0.136319
0.13623
0.135679
0.135827
0.136101
0.13707
0.13796
0.140057
0.141934
0.144948
0.148931
0.152347
0.156255
0.161145
0.177338
0.152716
)
;
    }
    fixedWalls
    {
        Cmu             0.09;
        kappa           0.41;
        E               9.8;
        type            epsilonWallFunction;
        value           nonuniform List<scalar> 
60
(
0.00034694
0.000805573
0.00187791
0.00276502
0.00339758
0.00403474
0.00470922
0.00550929
0.00625809
0.00716384
0.00782986
0.00844452
0.00856189
0.00839365
0.00780814
0.00677218
0.00481031
0.00357327
0.00432295
0.0453291
0.00434324
0.0104668
0.0166028
0.0209044
0.024275
0.0269116
0.029145
0.0310505
0.0328314
0.0345399
0.0363441
0.0383407
0.0407491
0.0437774
0.0481506
0.054303
0.0636089
0.0790645
0.110504
0.152716
0.00034694
0.00111681
0.00339836
0.00676355
0.00976115
0.0118196
0.0130242
0.0135733
0.0137389
0.0135604
0.0129405
0.0121812
0.0111892
0.0102601
0.00933124
0.00851558
0.00783037
0.00715998
0.00561841
0.00434324
)
;
    }
    frontAndBack
    {
        type            empty;
    }
}


// ************************************************************************* //
