/*--------------------------------*- C++ -*----------------------------------*\
| =========                 |                                                 |
| \\      /  F ield         | OpenFOAM: The Open Source CFD Toolbox           |
|  \\    /   O peration     | Version:  4.1                                   |
|   \\  /    A nd           | Web:      www.OpenFOAM.org                      |
|    \\/     M anipulation  |                                                 |
\*---------------------------------------------------------------------------*/
FoamFile
{
    version     2.0;
    format      ascii;
    class       volScalarField;
    location    "8";
    object      k;
}
// * * * * * * * * * * * * * * * * * * * * * * * * * * * * * * * * * * * * * //

dimensions      [0 2 -2 0 0 0 0];

internalField   nonuniform List<scalar> 
400
(
0.000167362
0.000364837
0.000766045
0.00121201
0.00154782
0.00175844
0.00187599
0.00192837
0.00194403
0.00192718
0.00186797
0.00179418
0.00169538
0.00160017
0.00150209
0.00141323
0.00133637
0.00125896
0.00107105
0.000902124
0.000293447
0.000629773
0.00097708
0.00114214
0.00118991
0.00108174
0.000987409
0.000888485
0.000826098
0.000790341
0.00077677
0.000786713
0.000847205
0.000920764
0.00104192
0.00119142
0.00137814
0.00157275
0.0016922
0.00162158
0.000515856
0.000842533
0.000933767
0.000920832
0.00071334
0.000613316
0.000521945
0.00047623
0.000446725
0.000432814
0.000427986
0.000430601
0.000460274
0.000506204
0.000601142
0.000757166
0.00100563
0.00137723
0.00187177
0.00220555
0.000667624
0.000838522
0.000829468
0.000640923
0.000471456
0.000395033
0.000335011
0.000305833
0.000277824
0.000263749
0.000255382
0.000252689
0.000260235
0.000284285
0.00033705
0.00045029
0.00068032
0.00109795
0.00185038
0.00257173
0.0007659
0.000818469
0.000692034
0.00045504
0.000338332
0.000280995
0.000238285
0.000217368
0.000200517
0.000192735
0.000188923
0.000188017
0.000192653
0.000206272
0.000234587
0.00030544
0.000489927
0.000888264
0.00172681
0.00284124
0.000858882
0.00077249
0.000562055
0.000349656
0.000259387
0.00021475
0.000185431
0.00017171
0.000163962
0.000160585
0.00015957
0.000162297
0.000167797
0.00017915
0.000197563
0.000237454
0.000371659
0.000746547
0.00165222
0.00304341
0.000952104
0.000711139
0.000470084
0.000286941
0.000212395
0.000176339
0.000156019
0.000146454
0.000141751
0.000139897
0.000139749
0.000144702
0.000152908
0.000166008
0.000182537
0.000206021
0.000295658
0.000621775
0.00156809
0.00320953
0.0010571
0.000644481
0.000404234
0.00024651
0.000184165
0.000154128
0.000137773
0.000129405
0.000124626
0.000122439
0.000122021
0.000126737
0.000135865
0.000151043
0.000171991
0.000190792
0.000253392
0.000540901
0.00151996
0.00334792
0.00115083
0.000601224
0.00036464
0.000225724
0.000169917
0.000142377
0.000126805
0.000117972
0.000112685
0.000110134
0.00010951
0.000113361
0.000122058
0.000136807
0.000159082
0.000178911
0.000219596
0.000463457
0.00147878
0.00347471
0.00125935
0.000564027
0.000337841
0.000211492
0.000161708
0.000135376
0.000119711
0.000110575
0.000105421
0.00010302
0.000102509
0.000105355
0.000112645
0.000126441
0.000147229
0.000171129
0.000201337
0.000419734
0.00145862
0.0035942
0.00133625
0.000567753
0.000326684
0.000208489
0.000160214
0.000132827
0.000115793
0.000106325
0.000101554
9.94204e-05
9.92791e-05
0.000101369
0.000107059
0.000119546
0.000137756
0.000163038
0.000186714
0.000380865
0.00144806
0.00371825
0.00140529
0.000588854
0.000330074
0.000210986
0.000161759
0.000133561
0.00011588
0.000105677
0.000100457
9.83341e-05
9.82965e-05
9.98872e-05
0.000104722
0.000116002
0.000133251
0.000158562
0.00018081
0.000363869
0.00144396
0.00385315
0.00141831
0.000632069
0.000343357
0.000218651
0.00016619
0.000136193
0.000117286
0.000106433
0.000100842
9.88286e-05
9.89141e-05
0.000100462
0.000104473
0.000114847
0.000131604
0.000156287
0.000177911
0.00035799
0.00145903
0.00401282
0.00139969
0.000707578
0.000377505
0.000236973
0.000175888
0.000142155
0.000121124
0.000109064
0.000102599
0.000101179
0.000101658
0.00010415
0.000108859
0.000120188
0.000134798
0.000155824
0.000177183
0.000362099
0.00156828
0.00420919
0.00133386
0.000775281
0.000422787
0.000266196
0.000193526
0.000153996
0.000129589
0.000115751
0.000107639
0.000107417
0.000108555
0.000113034
0.000118539
0.000130801
0.000143193
0.000160238
0.000184919
0.00040135
0.00172739
0.00448502
0.00121315
0.000844445
0.000514122
0.000326634
0.000229045
0.000178183
0.000147295
0.000130242
0.000119042
0.000118992
0.000120401
0.000125551
0.000130704
0.000141654
0.000151345
0.000166564
0.000201906
0.000477948
0.00200704
0.00485932
0.000965861
0.000824354
0.000578778
0.000411919
0.000300916
0.000230737
0.000187244
0.000162127
0.000145388
0.00013805
0.000137406
0.00013904
0.000143048
0.000152542
0.000164174
0.000191634
0.00026629
0.000678405
0.00248075
0.0053997
0.000792188
0.000768979
0.000664224
0.000529403
0.000425838
0.000347051
0.000287116
0.000248947
0.000222873
0.000207894
0.000200167
0.000201686
0.00020681
0.000224708
0.000261969
0.000356488
0.000562252
0.00125467
0.00341783
0.0062423
0.000899371
0.00102112
0.00111916
0.00109083
0.00102595
0.000983555
0.000942498
0.000945411
0.000958324
0.000995002
0.00103623
0.00112655
0.00120205
0.00135593
0.00149163
0.00185453
0.00234865
0.00348663
0.00592294
0.00780321
0.00430808
0.00677984
0.00832893
0.00887413
0.00897526
0.00897138
0.0089471
0.00895363
0.00896562
0.00900811
0.00904705
0.00913855
0.00921995
0.00935013
0.00952067
0.00966574
0.00983034
0.0100344
0.010696
0.00968152
)
;

boundaryField
{
    movingWall
    {
        type            kqRWallFunction;
        value           nonuniform List<scalar> 
20
(
0.00430808
0.00677984
0.00832893
0.00887413
0.00897526
0.00897138
0.0089471
0.00895363
0.00896562
0.00900811
0.00904705
0.00913855
0.00921995
0.00935013
0.00952067
0.00966574
0.00983034
0.0100344
0.010696
0.00968152
)
;
    }
    fixedWalls
    {
        type            kqRWallFunction;
        value           nonuniform List<scalar> 
60
(
0.000167362
0.000293447
0.000515856
0.000667624
0.0007659
0.000858882
0.000952104
0.0010571
0.00115083
0.00125935
0.00133625
0.00140529
0.00141831
0.00139969
0.00133386
0.00121315
0.000965861
0.000792188
0.000899371
0.00430808
0.000902124
0.00162158
0.00220555
0.00257173
0.00284124
0.00304341
0.00320953
0.00334792
0.00347471
0.0035942
0.00371825
0.00385315
0.00401282
0.00420919
0.00448502
0.00485932
0.0053997
0.0062423
0.00780321
0.00968152
0.000167362
0.000364837
0.000766045
0.00121201
0.00154782
0.00175844
0.00187599
0.00192837
0.00194403
0.00192718
0.00186797
0.00179418
0.00169538
0.00160017
0.00150209
0.00141323
0.00133637
0.00125896
0.00107105
0.000902124
)
;
    }
    frontAndBack
    {
        type            empty;
    }
}


// ************************************************************************* //
