/*--------------------------------*- C++ -*----------------------------------*\
| =========                 |                                                 |
| \\      /  F ield         | OpenFOAM: The Open Source CFD Toolbox           |
|  \\    /   O peration     | Version:  4.1                                   |
|   \\  /    A nd           | Web:      www.OpenFOAM.org                      |
|    \\/     M anipulation  |                                                 |
\*---------------------------------------------------------------------------*/
FoamFile
{
    version     2.0;
    format      ascii;
    class       volScalarField;
    location    "8";
    object      nut;
}
// * * * * * * * * * * * * * * * * * * * * * * * * * * * * * * * * * * * * * //

dimensions      [0 2 -1 0 0 0 0];

internalField   nonuniform List<scalar> 
400
(
7.26607e-06
1.07266e-05
1.55411e-05
1.95469e-05
2.20892e-05
2.35448e-05
2.43195e-05
2.46569e-05
2.4757e-05
2.46497e-05
2.4268e-05
2.37838e-05
2.31196e-05
2.24609e-05
2.17617e-05
2.11082e-05
2.05264e-05
1.9923e-05
1.83757e-05
1.6864e-05
9.62051e-06
1.81097e-05
2.13207e-05
2.17265e-05
2.20664e-05
1.97154e-05
1.90531e-05
1.83724e-05
1.89746e-05
2.02363e-05
2.12923e-05
2.24408e-05
2.41095e-05
2.52648e-05
2.73255e-05
2.86843e-05
2.9381e-05
2.9201e-05
2.67482e-05
2.26101e-05
1.27533e-05
2.28433e-05
2.25838e-05
2.19277e-05
1.71076e-05
1.64633e-05
1.594e-05
1.63281e-05
1.64155e-05
1.64083e-05
1.62942e-05
1.56832e-05
1.57938e-05
1.60173e-05
1.71689e-05
1.91917e-05
2.20838e-05
2.56509e-05
2.82769e-05
2.63692e-05
1.4508e-05
2.35269e-05
2.27811e-05
1.78935e-05
1.52205e-05
1.47937e-05
1.44627e-05
1.45133e-05
1.37789e-05
1.33751e-05
1.29094e-05
1.25786e-05
1.17764e-05
1.16079e-05
1.17432e-05
1.32011e-05
1.64749e-05
2.12007e-05
2.74381e-05
2.84745e-05
1.55388e-05
2.4797e-05
2.10402e-05
1.53274e-05
1.40536e-05
1.39867e-05
1.39431e-05
1.43163e-05
1.4665e-05
1.49972e-05
1.50792e-05
1.49785e-05
1.36571e-05
1.25067e-05
1.10721e-05
1.075e-05
1.30246e-05
1.80899e-05
2.56857e-05
2.99294e-05
1.64548e-05
2.52837e-05
1.88745e-05
1.41972e-05
1.34134e-05
1.38401e-05
1.48745e-05
1.6377e-05
1.86145e-05
2.01188e-05
2.08324e-05
2.12632e-05
1.91904e-05
1.69102e-05
1.36945e-05
1.07989e-05
1.11121e-05
1.59191e-05
2.4947e-05
3.09759e-05
1.73246e-05
2.47521e-05
1.74608e-05
1.35696e-05
1.32531e-05
1.43672e-05
1.67746e-05
1.97447e-05
2.34192e-05
2.58722e-05
2.70405e-05
2.79871e-05
2.58746e-05
2.29249e-05
1.81938e-05
1.2835e-05
1.04369e-05
1.40791e-05
2.4046e-05
3.18099e-05
1.82549e-05
2.28396e-05
1.64816e-05
1.31138e-05
1.32955e-05
1.51161e-05
1.85863e-05
2.2611e-05
2.66482e-05
2.91683e-05
3.0225e-05
3.09231e-05
2.91196e-05
2.65156e-05
2.21693e-05
1.54559e-05
1.05075e-05
1.293e-05
2.37996e-05
3.24881e-05
1.90469e-05
2.1932e-05
1.60557e-05
1.30446e-05
1.35571e-05
1.59752e-05
1.99829e-05
2.42876e-05
2.79898e-05
3.01151e-05
3.08626e-05
3.10031e-05
2.96029e-05
2.74503e-05
2.41918e-05
1.78525e-05
1.09731e-05
1.17857e-05
2.35137e-05
3.30971e-05
1.99245e-05
1.99587e-05
1.58065e-05
1.29525e-05
1.37217e-05
1.6156e-05
2.00392e-05
2.40434e-05
2.74955e-05
2.95349e-05
3.01863e-05
2.97714e-05
2.85134e-05
2.67264e-05
2.40881e-05
1.90991e-05
1.13992e-05
1.11278e-05
2.35497e-05
3.36608e-05
2.0524e-05
1.91369e-05
1.57245e-05
1.304e-05
1.34519e-05
1.54381e-05
1.85591e-05
2.20004e-05
2.52833e-05
2.74665e-05
2.85713e-05
2.82831e-05
2.69244e-05
2.52739e-05
2.28647e-05
1.8837e-05
1.12318e-05
1.02421e-05
2.35927e-05
3.42361e-05
2.10475e-05
1.77421e-05
1.56304e-05
1.30859e-05
1.32887e-05
1.4902e-05
1.75432e-05
2.04433e-05
2.32371e-05
2.53048e-05
2.60792e-05
2.57489e-05
2.49704e-05
2.40278e-05
2.19072e-05
1.83347e-05
1.09831e-05
9.75642e-06
2.36369e-05
3.4851e-05
2.11454e-05
1.65851e-05
1.53196e-05
1.3145e-05
1.29965e-05
1.40062e-05
1.59329e-05
1.82101e-05
2.04256e-05
2.22112e-05
2.27213e-05
2.24664e-05
2.17481e-05
2.11547e-05
2.00583e-05
1.73745e-05
1.06761e-05
9.45765e-06
2.37718e-05
3.5565e-05
2.10066e-05
1.66709e-05
1.4982e-05
1.33609e-05
1.27977e-05
1.29912e-05
1.38236e-05
1.52497e-05
1.67366e-05
1.83991e-05
1.89379e-05
1.91026e-05
1.89384e-05
1.90683e-05
1.80762e-05
1.50964e-05
9.35402e-06
8.62948e-06
2.40221e-05
3.64241e-05
2.05075e-05
1.70236e-05
1.46556e-05
1.32534e-05
1.25956e-05
1.24927e-05
1.2723e-05
1.33e-05
1.38591e-05
1.5223e-05
1.56179e-05
1.63344e-05
1.65741e-05
1.72327e-05
1.60683e-05
1.27126e-05
8.17766e-06
8.72834e-06
2.50536e-05
3.75983e-05
1.95589e-05
1.85164e-05
1.55242e-05
1.33371e-05
1.23559e-05
1.21155e-05
1.198e-05
1.22521e-05
1.23038e-05
1.35548e-05
1.38775e-05
1.45872e-05
1.46661e-05
1.47649e-05
1.28661e-05
9.42715e-06
6.57404e-06
8.82803e-06
2.67939e-05
3.91354e-05
1.74541e-05
1.87625e-05
1.696e-05
1.55979e-05
1.39702e-05
1.27093e-05
1.19363e-05
1.16709e-05
1.13179e-05
1.14144e-05
1.14407e-05
1.13732e-05
1.09986e-05
1.00124e-05
8.10617e-06
6.24418e-06
5.75494e-06
1.02874e-05
2.96331e-05
4.12539e-05
1.58064e-05
1.9024e-05
1.86145e-05
1.66672e-05
1.4885e-05
1.30497e-05
1.12297e-05
9.74908e-06
8.55827e-06
7.40919e-06
6.65507e-06
6.15425e-06
5.80022e-06
5.33675e-06
5.31533e-06
5.90786e-06
7.92014e-06
1.47044e-05
3.43212e-05
4.43558e-05
1.68399e-05
1.57327e-05
1.5315e-05
1.41917e-05
1.28246e-05
1.19512e-05
1.10073e-05
1.08619e-05
1.08043e-05
1.09405e-05
1.13158e-05
1.22021e-05
1.29597e-05
1.46642e-05
1.60214e-05
1.87562e-05
2.19841e-05
2.91815e-05
4.49043e-05
4.95921e-05
3.68496e-05
4.62265e-05
5.12347e-05
5.28846e-05
5.3184e-05
5.31724e-05
5.31e-05
5.31195e-05
5.31548e-05
5.32805e-05
5.33954e-05
5.36653e-05
5.3903e-05
5.42834e-05
5.47763e-05
5.51921e-05
5.56605e-05
5.62357e-05
5.80607e-05
5.5239e-05
)
;

boundaryField
{
    movingWall
    {
        type            nutkWallFunction;
        Cmu             0.09;
        kappa           0.41;
        E               9.8;
        value           nonuniform List<scalar> 
20
(
0
0
6.56842e-07
9.28043e-07
9.77286e-07
9.754e-07
9.63607e-07
9.66781e-07
9.72605e-07
9.93211e-07
1.01204e-06
1.05612e-06
1.09512e-06
1.15707e-06
1.23749e-06
1.30524e-06
1.38142e-06
1.47486e-06
1.77041e-06
1.31258e-06
)
;
    }
    fixedWalls
    {
        type            nutkWallFunction;
        Cmu             0.09;
        kappa           0.41;
        E               9.8;
        value           nonuniform List<scalar> 
60
(
0
0
0
0
0
0
0
0
0
0
0
0
0
0
0
0
0
0
0
0
0
0
0
0
0
0
0
0
0
0
0
0
0
0
0
0
0
0
3.85449e-07
1.31258e-06
0
0
0
0
0
0
0
0
0
0
0
0
0
0
0
0
0
0
0
0
)
;
    }
    frontAndBack
    {
        type            empty;
    }
}


// ************************************************************************* //
