/*--------------------------------*- C++ -*----------------------------------*\
| =========                 |                                                 |
| \\      /  F ield         | OpenFOAM: The Open Source CFD Toolbox           |
|  \\    /   O peration     | Version:  4.1                                   |
|   \\  /    A nd           | Web:      www.OpenFOAM.org                      |
|    \\/     M anipulation  |                                                 |
\*---------------------------------------------------------------------------*/
FoamFile
{
    version     2.0;
    format      ascii;
    class       volScalarField;
    location    "8";
    object      p;
}
// * * * * * * * * * * * * * * * * * * * * * * * * * * * * * * * * * * * * * //

dimensions      [0 2 -2 0 0 0 0];

internalField   nonuniform List<scalar> 
400
(
7.12386e-08
-0.000116406
-0.000299918
-0.000943065
-0.00228368
-0.00423353
-0.00642533
-0.00848174
-0.010138
-0.0112679
-0.011766
-0.0115349
-0.0104919
-0.00856065
-0.00569821
-0.00200852
0.00216786
0.00602519
0.00852044
0.00925315
0.000175602
-2.03217e-05
-0.000454932
-0.00146484
-0.00313082
-0.0052447
-0.00744013
-0.00941874
-0.0110188
-0.0120987
-0.0125736
-0.0123959
-0.0115192
-0.00983065
-0.00727838
-0.00388516
0.000110262
0.0040871
0.00694296
0.00810397
0.000126833
-0.000321056
-0.00122483
-0.0027633
-0.004858
-0.00715481
-0.00932866
-0.0112228
-0.0127206
-0.0136761
-0.0140767
-0.013908
-0.013143
-0.0117341
-0.00961631
-0.00675218
-0.00319674
0.000713496
0.00394073
0.00555375
-0.000532593
-0.00124924
-0.00264348
-0.00471021
-0.00713709
-0.00951329
-0.0115952
-0.0132524
-0.0144256
-0.0151456
-0.0154275
-0.0152603
-0.0146257
-0.0134993
-0.01184
-0.00958841
-0.00669013
-0.00318538
9.52805e-05
0.00187779
-0.00192447
-0.00285162
-0.00459164
-0.00697326
-0.0094768
-0.0116991
-0.0134986
-0.0148561
-0.0157895
-0.0163429
-0.0165335
-0.0163661
-0.0158395
-0.0149429
-0.0136543
-0.0119305
-0.00969902
-0.00684163
-0.00383328
-0.00209814
-0.00389978
-0.00489273
-0.0067516
-0.00916413
-0.0115154
-0.0134661
-0.0149704
-0.0160793
-0.0168444
-0.0172958
-0.0174451
-0.0173004
-0.0168633
-0.0161348
-0.0151088
-0.0137695
-0.012098
-0.00989581
-0.00743647
-0.00580079
-0.00602451
-0.00699167
-0.00879362
-0.011059
-0.0131533
-0.0148247
-0.0160872
-0.0170245
-0.0176794
-0.0180719
-0.0182081
-0.0180929
-0.0177284
-0.0171228
-0.0162834
-0.0152051
-0.0139324
-0.0122658
-0.0103835
-0.00892902
-0.00792261
-0.00880509
-0.0104697
-0.0125406
-0.0143831
-0.0158246
-0.0169162
-0.0177393
-0.0183216
-0.0186763
-0.0188075
-0.0187186
-0.0184119
-0.0178963
-0.0171907
-0.0162818
-0.0152808
-0.0139912
-0.0126214
-0.0113548
-0.0093292
-0.0101469
-0.0116654
-0.013568
-0.0152207
-0.0165052
-0.0174884
-0.0182396
-0.018776
-0.0191065
-0.0192347
-0.0191641
-0.0188983
-0.0184421
-0.0178283
-0.0170118
-0.016206
-0.0151389
-0.0141337
-0.0130617
-0.0101691
-0.0109072
-0.0123251
-0.014124
-0.015669
-0.0168764
-0.0178087
-0.0185253
-0.0190385
-0.0193565
-0.0194834
-0.0194226
-0.0191803
-0.0187511
-0.0181969
-0.0173925
-0.0167415
-0.0157184
-0.0150331
-0.0140471
-0.010397
-0.0110959
-0.0124539
-0.0142055
-0.0157296
-0.0169407
-0.017877
-0.0185931
-0.0191051
-0.0194223
-0.0195499
-0.0194898
-0.019253
-0.0188188
-0.0182889
-0.0174344
-0.0168805
-0.0157513
-0.0153778
-0.014303
-0.0100314
-0.010722
-0.012059
-0.0138145
-0.0153993
-0.0166826
-0.0176775
-0.0184318
-0.0189689
-0.0193001
-0.0194322
-0.0193653
-0.0191119
-0.0186557
-0.0180679
-0.0171888
-0.0165389
-0.0153306
-0.0151741
-0.0138244
-0.0091979
-0.00988942
-0.0112141
-0.0129659
-0.0146785
-0.0160913
-0.0171977
-0.0180333
-0.018626
-0.0189882
-0.0191303
-0.0190481
-0.0187579
-0.0182403
-0.0175497
-0.0165997
-0.0157415
-0.014491
-0.0143659
-0.0126962
-0.00805653
-0.00870286
-0.00998338
-0.0116985
-0.0135396
-0.0151282
-0.0164021
-0.0173714
-0.0180597
-0.0184772
-0.0186386
-0.0185355
-0.0181848
-0.0175657
-0.0167271
-0.0156241
-0.0145151
-0.0132025
-0.0130041
-0.0111077
-0.00683109
-0.00735085
-0.00848248
-0.0100981
-0.0119892
-0.0137658
-0.0152592
-0.0164227
-0.0172574
-0.0177623
-0.0179558
-0.017827
-0.0173921
-0.0166329
-0.0155958
-0.0142635
-0.0128908
-0.0114478
-0.0111544
-0.00910747
-0.00573174
-0.00596361
-0.00681454
-0.00822619
-0.0100638
-0.0119906
-0.0137346
-0.015144
-0.0161792
-0.0168146
-0.0170622
-0.0169133
-0.0163872
-0.0154674
-0.0141972
-0.0125894
-0.0109217
-0.00922803
-0.00877211
-0.00633118
-0.00497985
-0.00481785
-0.0052116
-0.00626387
-0.00792905
-0.0099106
-0.0118785
-0.013555
-0.0148369
-0.0156553
-0.0160099
-0.0158873
-0.0152958
-0.0142226
-0.0127127
-0.0107958
-0.0087225
-0.00653841
-0.00545094
-0.00120333
-0.00448382
-0.00385549
-0.00374632
-0.00437257
-0.00581648
-0.007797
-0.009923
-0.0118105
-0.013309
-0.0143182
-0.0148045
-0.0147458
-0.0141522
-0.0130137
-0.0113267
-0.00908814
-0.00641858
-0.00324971
-0.000165777
0.00909388
-0.0056655
-0.00372257
-0.00289978
-0.0030673
-0.00430757
-0.00628206
-0.00850769
-0.0105709
-0.0122347
-0.0133992
-0.0140038
-0.014043
-0.0134747
-0.0122806
-0.010392
-0.00770403
-0.00409359
0.000953763
0.00784802
0.0250336
-0.000847894
0.000795166
-0.00014164
-0.00143323
-0.00313041
-0.00527909
-0.00760871
-0.00982058
-0.0116082
-0.0128658
-0.0135064
-0.0135343
-0.0128913
-0.0115828
-0.00947388
-0.00640045
-0.00142097
0.00622264
0.0176962
0.0366539
)
;

boundaryField
{
    movingWall
    {
        type            zeroGradient;
    }
    fixedWalls
    {
        type            zeroGradient;
    }
    frontAndBack
    {
        type            empty;
    }
}


// ************************************************************************* //
