/*--------------------------------*- C++ -*----------------------------------*\
| =========                 |                                                 |
| \\      /  F ield         | OpenFOAM: The Open Source CFD Toolbox           |
|  \\    /   O peration     | Version:  4.1                                   |
|   \\  /    A nd           | Web:      www.OpenFOAM.org                      |
|    \\/     M anipulation  |                                                 |
\*---------------------------------------------------------------------------*/
FoamFile
{
    version     2.0;
    format      ascii;
    class       surfaceScalarField;
    location    "8";
    object      phi;
}
// * * * * * * * * * * * * * * * * * * * * * * * * * * * * * * * * * * * * * //

dimensions      [0 3 -1 0 0 0 0];

internalField   nonuniform List<scalar> 
760
(
-4.45498e-08
4.45428e-08
-5.70998e-07
5.26448e-07
-1.60756e-06
1.03656e-06
-2.97969e-06
1.37213e-06
-4.41119e-06
1.4315e-06
-5.74685e-06
1.33566e-06
-6.88835e-06
1.14149e-06
-7.80201e-06
9.13669e-07
-8.46634e-06
6.64323e-07
-8.92331e-06
4.56978e-07
-9.16499e-06
2.41675e-07
-9.21053e-06
4.55366e-08
-9.02702e-06
-1.83506e-07
-8.62113e-06
-4.05895e-07
-7.90279e-06
-7.18338e-07
-6.82788e-06
-1.07491e-06
-5.31867e-06
-1.50921e-06
-3.42961e-06
-1.88907e-06
-1.47054e-06
-1.95907e-06
-1.47054e-06
-6.96827e-07
7.4137e-07
-1.80768e-06
1.6373e-06
-3.19245e-06
2.42133e-06
-4.59569e-06
2.77537e-06
-5.89242e-06
2.72822e-06
-6.9916e-06
2.43484e-06
-7.86551e-06
2.01541e-06
-8.52429e-06
1.57245e-06
-9.01221e-06
1.15224e-06
-9.30924e-06
7.54011e-07
-9.42114e-06
3.53578e-07
-9.32781e-06
-4.77938e-08
-9.1e-06
-4.11312e-07
-8.66672e-06
-8.39181e-07
-8.01296e-06
-1.3721e-06
-7.05307e-06
-2.0348e-06
-5.72538e-06
-2.83689e-06
-3.96335e-06
-3.6511e-06
-1.91311e-06
-4.0093e-06
-3.38365e-06
-1.15789e-06
1.89926e-06
-2.53047e-06
3.00989e-06
-3.89237e-06
3.78323e-06
-5.11448e-06
3.99747e-06
-6.13308e-06
3.74683e-06
-6.91218e-06
3.21394e-06
-7.4758e-06
2.57902e-06
-7.82555e-06
1.92221e-06
-8.01388e-06
1.34056e-06
-8.05158e-06
7.91713e-07
-8.00678e-06
3.0878e-07
-7.88958e-06
-1.64996e-07
-7.66811e-06
-6.32787e-07
-7.32683e-06
-1.18045e-06
-6.85282e-06
-1.84612e-06
-6.17561e-06
-2.712e-06
-5.20824e-06
-3.80427e-06
-3.81289e-06
-5.04645e-06
-2.01155e-06
-5.81064e-06
-5.3952e-06
-1.32726e-06
3.22652e-06
-2.69072e-06
4.37335e-06
-3.88398e-06
4.97649e-06
-4.8497e-06
4.96319e-06
-5.5326e-06
4.42974e-06
-5.93928e-06
3.62062e-06
-6.13361e-06
2.77335e-06
-6.20045e-06
1.98904e-06
-6.2059e-06
1.34601e-06
-6.18127e-06
7.67089e-07
-6.11759e-06
2.45101e-07
-6.01012e-06
-2.72469e-07
-5.83332e-06
-8.09584e-07
-5.59115e-06
-1.42263e-06
-5.26946e-06
-2.16781e-06
-4.85379e-06
-3.12766e-06
-4.25497e-06
-4.40309e-06
-3.27401e-06
-6.02741e-06
-1.82224e-06
-7.26241e-06
-7.21745e-06
-1.23361e-06
4.46012e-06
-2.41229e-06
5.55203e-06
-3.37833e-06
5.94253e-06
-4.06303e-06
5.64788e-06
-4.44254e-06
4.80925e-06
-4.59869e-06
3.77677e-06
-4.65368e-06
2.82835e-06
-4.68314e-06
2.01851e-06
-4.67981e-06
1.34267e-06
-4.64905e-06
7.36333e-07
-4.58387e-06
1.79915e-07
-4.47356e-06
-3.82772e-07
-4.3143e-06
-9.68844e-07
-4.10893e-06
-1.628e-06
-3.86153e-06
-2.41521e-06
-3.56975e-06
-3.41944e-06
-3.21737e-06
-4.75547e-06
-2.5843e-06
-6.66048e-06
-1.51308e-06
-8.33362e-06
-8.73053e-06
-1.01131e-06
5.47144e-06
-1.95532e-06
6.49604e-06
-2.68172e-06
6.66893e-06
-3.14447e-06
6.11063e-06
-3.35549e-06
5.02027e-06
-3.44303e-06
3.86431e-06
-3.4891e-06
2.87442e-06
-3.5295e-06
2.0589e-06
-3.55269e-06
1.36586e-06
-3.55019e-06
7.33835e-07
-3.50565e-06
1.35378e-07
-3.41627e-06
-4.72148e-07
-3.27255e-06
-1.11257e-06
-3.07625e-06
-1.82429e-06
-2.84054e-06
-2.65093e-06
-2.58825e-06
-3.67173e-06
-2.35623e-06
-4.9875e-06
-2.0177e-06
-6.99901e-06
-1.20352e-06
-9.14779e-06
-9.93405e-06
-7.60883e-07
6.23232e-06
-1.44033e-06
7.17549e-06
-1.95669e-06
7.18529e-06
-2.26978e-06
6.42372e-06
-2.41577e-06
5.16625e-06
-2.49164e-06
3.94018e-06
-2.55336e-06
2.93614e-06
-2.61046e-06
2.116e-06
-2.64817e-06
1.40357e-06
-2.65891e-06
7.4458e-07
-2.63226e-06
1.08725e-07
-2.56574e-06
-5.38662e-07
-2.45267e-06
-1.22564e-06
-2.29049e-06
-1.98648e-06
-2.08946e-06
-2.85195e-06
-1.8576e-06
-3.9036e-06
-1.65363e-06
-5.19147e-06
-1.46075e-06
-7.19189e-06
-9.59263e-07
-9.64928e-06
-1.08933e-05
-4.79118e-07
6.71144e-06
-9.42788e-07
7.63916e-06
-1.29427e-06
7.53678e-06
-1.50669e-06
6.63614e-06
-1.61971e-06
5.27927e-06
-1.69225e-06
4.01272e-06
-1.75968e-06
3.00357e-06
-1.81897e-06
2.17528e-06
-1.85814e-06
1.44275e-06
-1.873e-06
7.59439e-07
-1.85904e-06
9.47606e-08
-1.81541e-06
-5.82286e-07
-1.73872e-06
-1.30234e-06
-1.62294e-06
-2.10226e-06
-1.47227e-06
-3.00261e-06
-1.29527e-06
-4.0806e-06
-1.14527e-06
-5.34147e-06
-1.04225e-06
-7.29491e-06
-7.29862e-07
-9.96167e-06
-1.16232e-05
-2.4433e-07
6.95577e-06
-4.8593e-07
7.88076e-06
-6.82972e-07
7.73382e-06
-8.20237e-07
6.77341e-06
-9.09013e-07
5.36804e-06
-9.81448e-07
4.08516e-06
-1.04673e-06
3.06886e-06
-1.09932e-06
2.22786e-06
-1.13449e-06
1.47792e-06
-1.152e-06
7.7695e-07
-1.15134e-06
9.41071e-08
-1.13202e-06
-6.01605e-07
-1.09374e-06
-1.34062e-06
-1.02725e-06
-2.16875e-06
-9.36179e-07
-3.09368e-06
-8.12485e-07
-4.2043e-06
-7.22448e-07
-5.4315e-06
-6.62905e-07
-7.35445e-06
-5.58789e-07
-1.00658e-05
-1.2182e-05
1.91502e-08
6.93662e-06
-6.94375e-08
7.96935e-06
-1.4677e-07
7.81115e-06
-2.08225e-07
6.83486e-06
-2.65708e-07
5.42552e-06
-3.26872e-07
4.14632e-06
-3.7897e-07
3.12096e-06
-4.18509e-07
2.2674e-06
-4.47997e-07
1.50741e-06
-4.68973e-07
7.97926e-07
-4.82669e-07
1.07803e-07
-4.87966e-07
-5.96307e-07
-4.87719e-07
-1.34087e-06
-4.72183e-07
-2.18429e-06
-4.47421e-07
-3.11844e-06
-3.96339e-07
-4.25538e-06
-3.84527e-07
-5.44332e-06
-3.97858e-07
-7.34112e-06
-4.12144e-07
-1.00515e-05
-1.25941e-05
2.30136e-07
6.70648e-06
3.60793e-07
7.83869e-06
4.36597e-07
7.73535e-06
4.15572e-07
6.85589e-06
3.73246e-07
5.46785e-06
3.24794e-07
4.19478e-06
2.84353e-07
3.1614e-06
2.53487e-07
2.29826e-06
2.26649e-07
1.53424e-06
2.00867e-07
8.23709e-07
1.72801e-07
1.35869e-07
1.41966e-07
-5.65472e-07
1.10359e-07
-1.30926e-06
5.98019e-08
-2.13373e-06
5.56556e-08
-3.1143e-06
-2.68944e-08
-4.17283e-06
-1.09395e-08
-5.45927e-06
-1.73485e-07
-7.17857e-06
-3.07037e-07
-9.91795e-06
-1.29011e-05
4.64941e-07
6.24154e-06
7.64989e-07
7.53864e-06
9.79946e-07
7.52039e-06
1.0313e-06
6.80454e-06
1.0087e-06
5.49044e-06
9.73008e-07
4.23047e-06
9.48104e-07
3.1863e-06
9.31209e-07
2.31516e-06
9.12031e-07
1.55342e-06
8.84325e-07
8.51415e-07
8.42274e-07
1.7792e-07
7.86258e-07
-5.09455e-07
7.1255e-07
-1.23555e-06
6.3703e-07
-2.05821e-06
5.22554e-07
-2.99982e-06
4.27422e-07
-4.07769e-06
2.67048e-07
-5.2989e-06
-5.51297e-09
-6.90601e-06
-1.84651e-07
-9.73881e-06
-1.30858e-05
6.68518e-07
5.57302e-06
1.16511e-06
7.04205e-06
1.52863e-06
7.15687e-06
1.69635e-06
6.63682e-06
1.72446e-06
5.46233e-06
1.70924e-06
4.24569e-06
1.69398e-06
3.20156e-06
1.6814e-06
2.32773e-06
1.65986e-06
1.57497e-06
1.62283e-06
8.88442e-07
1.56275e-06
2.38004e-07
1.48044e-06
-4.27142e-07
1.37076e-06
-1.12588e-06
1.24254e-06
-1.92999e-06
1.05874e-06
-2.81602e-06
8.88493e-07
-3.90745e-06
5.97028e-07
-5.00743e-06
2.75787e-07
-6.58477e-06
-8.17649e-09
-9.45484e-06
-1.3094e-05
8.55433e-07
4.71759e-06
1.52554e-06
6.37194e-06
2.03055e-06
6.65186e-06
2.35152e-06
6.31585e-06
2.46866e-06
5.3452e-06
2.49766e-06
4.21669e-06
2.50302e-06
3.19621e-06
2.50116e-06
2.32959e-06
2.48428e-06
1.59185e-06
2.44592e-06
9.26805e-07
2.37523e-06
3.08689e-07
2.2714e-06
-3.23307e-07
2.1235e-06
-9.77981e-07
1.93772e-06
-1.7442e-06
1.6834e-06
-2.5617e-06
1.39779e-06
-3.62184e-06
9.74686e-07
-4.58433e-06
5.46297e-07
-6.15638e-06
1.34592e-07
-9.04314e-06
-1.29594e-05
9.51863e-07
3.76573e-06
1.81718e-06
5.50662e-06
2.50732e-06
5.96173e-06
3.02377e-06
5.7994e-06
3.30676e-06
5.0622e-06
3.44218e-06
4.08127e-06
3.49752e-06
3.14087e-06
3.51668e-06
2.31042e-06
3.50366e-06
1.60487e-06
3.45969e-06
9.70769e-07
3.36765e-06
4.00734e-07
3.22938e-06
-1.85035e-07
3.02824e-06
-7.7684e-07
2.77073e-06
-1.4867e-06
2.4178e-06
-2.20877e-06
1.9841e-06
-3.18814e-06
1.41079e-06
-4.01101e-06
8.34451e-07
-5.58005e-06
2.90688e-07
-8.49938e-06
-1.26687e-05
9.93788e-07
2.77194e-06
1.94041e-06
4.56e-06
2.79984e-06
5.1023e-06
3.53055e-06
5.06869e-06
4.04462e-06
4.54814e-06
4.3666e-06
3.75929e-06
4.5494e-06
2.95807e-06
4.64302e-06
2.2168e-06
4.66586e-06
1.58203e-06
4.63402e-06
1.0026e-06
4.53139e-06
5.0337e-07
4.36907e-06
-2.27187e-08
4.1124e-06
-5.20174e-07
3.76928e-06
-1.14357e-06
3.28736e-06
-1.72685e-06
2.66155e-06
-2.56233e-06
1.90172e-06
-3.25118e-06
1.14048e-06
-4.81881e-06
4.61272e-07
-7.82017e-06
-1.22074e-05
7.72071e-07
1.99987e-06
1.87466e-06
3.45741e-06
2.93737e-06
4.03958e-06
3.91105e-06
4.095e-06
4.7014e-06
3.75779e-06
5.27732e-06
3.18337e-06
5.66067e-06
2.57472e-06
5.90193e-06
1.97555e-06
6.00874e-06
1.47522e-06
6.0289e-06
9.82439e-07
5.93482e-06
5.9745e-07
5.74164e-06
1.70461e-07
5.4047e-06
-1.83229e-07
4.94988e-06
-6.88757e-07
4.29775e-06
-1.07472e-06
3.4587e-06
-1.72328e-06
2.50549e-06
-2.29797e-06
1.5616e-06
-3.87492e-06
6.65797e-07
-6.92437e-06
-1.15416e-05
2.7075e-07
1.72912e-06
1.29846e-06
2.4297e-06
2.50593e-06
2.83211e-06
3.72858e-06
2.87235e-06
4.80702e-06
2.67936e-06
5.67634e-06
2.31405e-06
6.30574e-06
1.94532e-06
6.74828e-06
1.53301e-06
6.99869e-06
1.22482e-06
7.10908e-06
8.72043e-07
7.05545e-06
6.51088e-07
6.8965e-06
3.29411e-07
6.57803e-06
1.35241e-07
6.0866e-06
-1.97331e-07
5.40489e-06
-3.93007e-07
4.55182e-06
-8.70214e-07
3.57116e-06
-1.31731e-06
2.53079e-06
-2.83454e-06
1.18822e-06
-5.58179e-06
-1.03534e-05
-5.07394e-07
2.23651e-06
4.28439e-07
1.49387e-06
1.91861e-06
1.34194e-06
3.43768e-06
1.35328e-06
4.77303e-06
1.344e-06
5.87777e-06
1.20931e-06
6.74993e-06
1.07316e-06
7.409e-06
8.73932e-07
7.88605e-06
7.47773e-07
8.18282e-06
5.75269e-07
8.35575e-06
4.78157e-07
8.36904e-06
3.1612e-07
8.26989e-06
2.34396e-07
7.9978e-06
7.47548e-08
7.62245e-06
-1.76583e-08
7.06751e-06
-3.1527e-07
6.35559e-06
-6.05393e-07
5.17436e-06
-1.65331e-06
2.85368e-06
-3.26111e-06
-7.49973e-06
2.23651e-06
3.73038e-06
5.07232e-06
6.4256e-06
7.76961e-06
8.97892e-06
1.00521e-05
1.0926e-05
1.16738e-05
1.22491e-05
1.27272e-05
1.30433e-05
1.32777e-05
1.33525e-05
1.33348e-05
1.30195e-05
1.24142e-05
1.07608e-05
7.49973e-06
)
;

boundaryField
{
    movingWall
    {
        type            calculated;
        value           uniform 0;
    }
    fixedWalls
    {
        type            calculated;
        value           uniform 0;
    }
    frontAndBack
    {
        type            empty;
        value           nonuniform 0();
    }
}


// ************************************************************************* //
