/*--------------------------------*- C++ -*----------------------------------*\
| =========                 |                                                 |
| \\      /  F ield         | OpenFOAM: The Open Source CFD Toolbox           |
|  \\    /   O peration     | Version:  4.1                                   |
|   \\  /    A nd           | Web:      www.OpenFOAM.org                      |
|    \\/     M anipulation  |                                                 |
\*---------------------------------------------------------------------------*/
FoamFile
{
    version     2.0;
    format      ascii;
    class       volVectorField;
    location    "8";
    object      U;
}
// * * * * * * * * * * * * * * * * * * * * * * * * * * * * * * * * * * * * * //

dimensions      [0 1 -1 0 0 0 0];

internalField   nonuniform List<vector> 
400
(
(0.00150032 -0.00313513 0)
(-0.00347778 0.00254203 0)
(-0.017457 0.00906291 0)
(-0.0446729 0.0150548 0)
(-0.0758387 0.0159883 0)
(-0.104605 0.0144102 0)
(-0.129664 0.0123265 0)
(-0.149438 0.0099312 0)
(-0.164676 0.0077887 0)
(-0.17556 0.00540302 0)
(-0.18228 0.0033652 0)
(-0.185121 0.00135121 0)
(-0.184478 -0.00179371 0)
(-0.177448 -0.00419582 0)
(-0.165676 -0.00829909 0)
(-0.145967 -0.0121721 0)
(-0.119387 -0.0169989 0)
(-0.084994 -0.0199488 0)
(-0.0482432 -0.0187323 0)
(-0.0154973 -0.0103874 0)
(-0.0055599 0.00549871 0)
(-0.021788 0.0205785 0)
(-0.0477922 0.035057 0)
(-0.0787111 0.0418969 0)
(-0.107758 0.0417586 0)
(-0.132239 0.0378047 0)
(-0.151371 0.0320032 0)
(-0.165335 0.0258306 0)
(-0.177332 0.0181429 0)
(-0.184305 0.012229 0)
(-0.188791 0.0057964 0)
(-0.188852 8.26848e-05 0)
(-0.185989 -0.00671116 0)
(-0.178894 -0.014117 0)
(-0.167449 -0.0235286 0)
(-0.149999 -0.034678 0)
(-0.126063 -0.047604 0)
(-0.0946316 -0.0591402 0)
(-0.0590681 -0.0613629 0)
(-0.0210516 -0.0463086 0)
(-0.0112206 0.0262917 0)
(-0.0349666 0.0469774 0)
(-0.0642674 0.0623377 0)
(-0.0926007 0.0674946 0)
(-0.116053 0.0642427 0)
(-0.133413 0.055905 0)
(-0.145458 0.0450215 0)
(-0.155023 0.0336652 0)
(-0.159737 0.024322 0)
(-0.161015 0.0147739 0)
(-0.161285 0.00608229 0)
(-0.159494 -0.00285318 0)
(-0.157013 -0.0120065 0)
(-0.15098 -0.0226549 0)
(-0.142926 -0.0355936 0)
(-0.130257 -0.0521601 0)
(-0.112722 -0.0722043 0)
(-0.0876721 -0.0931982 0)
(-0.0583539 -0.103896 0)
(-0.0219648 -0.0920206 0)
(-0.0136652 0.0512137 0)
(-0.0400339 0.0741557 0)
(-0.0676557 0.0873612 0)
(-0.0910881 0.0888171 0)
(-0.107466 0.0809684 0)
(-0.117229 0.0675856 0)
(-0.122398 0.0531318 0)
(-0.123946 0.0393439 0)
(-0.123461 0.0268888 0)
(-0.124398 0.015622 0)
(-0.123058 0.00564068 0)
(-0.121963 -0.00421897 0)
(-0.118945 -0.0143459 0)
(-0.115278 -0.0262196 0)
(-0.109662 -0.0408787 0)
(-0.102359 -0.0602941 0)
(-0.0910534 -0.0855199 0)
(-0.07251 -0.115154 0)
(-0.0509439 -0.135093 0)
(-0.0195661 -0.130805 0)
(-0.0133143 0.0757756 0)
(-0.0372568 0.0979887 0)
(-0.0611152 0.108055 0)
(-0.0785998 0.105306 0)
(-0.0882536 0.0920653 0)
(-0.091684 0.074243 0)
(-0.0926807 0.0567304 0)
(-0.0930008 0.0409338 0)
(-0.093405 0.0274941 0)
(-0.0933726 0.0154849 0)
(-0.0924232 0.00457198 0)
(-0.0908682 -0.00613483 0)
(-0.0882303 -0.0171698 0)
(-0.0847782 -0.0296974 0)
(-0.0805018 -0.044929 0)
(-0.0754162 -0.0649661 0)
(-0.0692912 -0.0925771 0)
(-0.0551435 -0.130101 0)
(-0.0413575 -0.159333 0)
(-0.0165167 -0.16326 0)
(-0.0106069 0.0979798 0)
(-0.0310651 0.119925 0)
(-0.0497655 0.125649 0)
(-0.0621916 0.117378 0)
(-0.0671653 0.0985355 0)
(-0.0679509 0.0770547 0)
(-0.0687816 0.0576397 0)
(-0.0698022 0.0411638 0)
(-0.0707657 0.027278 0)
(-0.0710765 0.0146821 0)
(-0.0707315 0.00295191 0)
(-0.0694113 -0.00884236 0)
(-0.0671482 -0.0211207 0)
(-0.0638108 -0.0346679 0)
(-0.0595639 -0.0504097 0)
(-0.0545912 -0.0701175 0)
(-0.0513828 -0.0966393 0)
(-0.0401637 -0.137595 0)
(-0.0352316 -0.177027 0)
(-0.00937526 -0.188967 0)
(-0.00830191 0.11642 0)
(-0.0232375 0.135926 0)
(-0.0369838 0.137667 0)
(-0.0455213 0.12493 0)
(-0.0479153 0.102025 0)
(-0.0484097 0.0784592 0)
(-0.0499632 0.0584295 0)
(-0.0514125 0.0419307 0)
(-0.0526166 0.0277644 0)
(-0.0531611 0.014756 0)
(-0.0530844 0.00232898 0)
(-0.0521304 -0.0103338 0)
(-0.0503282 -0.023719 0)
(-0.0476142 -0.0384934 0)
(-0.0440669 -0.0553458 0)
(-0.0388399 -0.0758292 0)
(-0.037615 -0.101287 0)
(-0.0266791 -0.141601 0)
(-0.028239 -0.189505 0)
(-0.00636978 -0.209883 0)
(-0.00490695 0.129366 0)
(-0.0150292 0.148567 0)
(-0.0249002 0.147743 0)
(-0.0304381 0.131082 0)
(-0.0316314 0.104979 0)
(-0.0323443 0.079924 0)
(-0.0342275 0.0595934 0)
(-0.0356741 0.0430016 0)
(-0.0368319 0.0284738 0)
(-0.037394 0.0149944 0)
(-0.0374458 0.00194136 0)
(-0.0368489 -0.0113736 0)
(-0.0356076 -0.0255148 0)
(-0.0336516 -0.0411636 0)
(-0.0314425 -0.0587595 0)
(-0.0262286 -0.0800091 0)
(-0.0274124 -0.105033 0)
(-0.0165985 -0.144767 0)
(-0.0236361 -0.196687 0)
(-0.0019195 -0.226042 0)
(-0.00280362 0.137787 0)
(-0.0076158 0.155334 0)
(-0.0133479 0.152609 0)
(-0.0166556 0.133908 0)
(-0.0172879 0.106265 0)
(-0.0182624 0.0808396 0)
(-0.02016 0.0606868 0)
(-0.0214103 0.0440367 0)
(-0.0223859 0.0291945 0)
(-0.0229097 0.0153134 0)
(-0.0230961 0.00179027 0)
(-0.0228816 -0.0120034 0)
(-0.0222988 -0.0266761 0)
(-0.0210439 -0.0430531 0)
(-0.020558 -0.0613144 0)
(-0.0153127 -0.0832271 0)
(-0.0189966 -0.107805 0)
(-0.00798865 -0.146729 0)
(-0.0195548 -0.200248 0)
(0.000415176 -0.238893 0)
(0.00109788 0.139993 0)
(-0.000447433 0.160046 0)
(-0.0029421 0.156861 0)
(-0.00423733 0.136978 0)
(-0.00461376 0.108549 0)
(-0.00552989 0.0826703 0)
(-0.0070395 0.0621003 0)
(-0.0079288 0.0450496 0)
(-0.00867042 0.0298767 0)
(-0.00916772 0.0157183 0)
(-0.00952202 0.00193752 0)
(-0.00968979 -0.01211 0)
(-0.00986276 -0.0270102 0)
(-0.00911561 -0.0437589 0)
(-0.0106153 -0.0625371 0)
(-0.00559526 -0.0847175 0)
(-0.0121459 -0.109576 0)
(-0.00103429 -0.146878 0)
(-0.0169494 -0.201502 0)
(0.00346584 -0.248466 0)
(0.00320587 0.137695 0)
(0.00580416 0.158951 0)
(0.0074242 0.155832 0)
(0.00791288 0.13654 0)
(0.0080034 0.108484 0)
(0.00733573 0.082879 0)
(0.00613745 0.0624524 0)
(0.00544747 0.0454667 0)
(0.00483366 0.0303277 0)
(0.00431849 0.0161566 0)
(0.00376348 0.00235436 0)
(0.00326519 -0.0117445 0)
(0.00225118 -0.0266799 0)
(0.00257501 -0.0434426 0)
(-0.000672595 -0.0627526 0)
(0.00370426 -0.0845849 0)
(-0.00545738 -0.109756 0)
(0.00567383 -0.14484 0)
(-0.0147819 -0.20041 0)
(0.00561704 -0.25537 0)
(0.00577782 0.131857 0)
(0.0123817 0.1562 0)
(0.0167766 0.154719 0)
(0.0195716 0.138084 0)
(0.0203956 0.110264 0)
(0.0201977 0.0846849 0)
(0.0193834 0.0637512 0)
(0.0189387 0.0463137 0)
(0.018538 0.0309734 0)
(0.0180862 0.0167691 0)
(0.0173173 0.00308043 0)
(0.016557 -0.0108793 0)
(0.0147086 -0.0256717 0)
(0.0144706 -0.0422216 0)
(0.00989066 -0.0615152 0)
(0.0131052 -0.0832471 0)
(0.00155989 -0.107986 0)
(0.0119611 -0.141397 0)
(-0.0132786 -0.197183 0)
(0.00884903 -0.259465 0)
(0.00787792 0.120154 0)
(0.0182282 0.146994 0)
(0.0266769 0.146994 0)
(0.0314519 0.134841 0)
(0.0340783 0.108741 0)
(0.0346868 0.0837141 0)
(0.0343178 0.0630084 0)
(0.0339816 0.0458179 0)
(0.0335699 0.0308793 0)
(0.0330453 0.0171332 0)
(0.0318422 0.0039629 0)
(0.0309275 -0.00954702 0)
(0.0280375 -0.0238483 0)
(0.0274892 -0.0402069 0)
(0.0212615 -0.0586069 0)
(0.0233747 -0.0806148 0)
(0.00954094 -0.103319 0)
(0.0183924 -0.135522 0)
(-0.0110718 -0.191573 0)
(0.0123068 -0.261357 0)
(0.0104976 0.105865 0)
(0.0235443 0.13763 0)
(0.0355967 0.141076 0)
(0.0429216 0.132002 0)
(0.0478019 0.110038 0)
(0.0498242 0.0855353 0)
(0.0503091 0.0644034 0)
(0.0503477 0.0468084 0)
(0.0500129 0.0318447 0)
(0.0496924 0.0182806 0)
(0.0480464 0.00550866 0)
(0.0472817 -0.00755901 0)
(0.0432672 -0.0211937 0)
(0.0424269 -0.0369674 0)
(0.0344078 -0.0541138 0)
(0.0352469 -0.0756461 0)
(0.0187157 -0.0962301 0)
(0.0250136 -0.128363 0)
(-0.00845131 -0.185586 0)
(0.0168652 -0.261634 0)
(0.0112948 0.0856671 0)
(0.0277631 0.119403 0)
(0.0434097 0.126825 0)
(0.0545049 0.121793 0)
(0.062607 0.104607 0)
(0.0672677 0.0829006 0)
(0.0694552 0.0627789 0)
(0.0705175 0.0456109 0)
(0.0702689 0.0311824 0)
(0.070334 0.0183609 0)
(0.0679081 0.00660484 0)
(0.0671676 -0.00549867 0)
(0.0617054 -0.0177686 0)
(0.0602591 -0.0323586 0)
(0.0502082 -0.0476527 0)
(0.0491853 -0.0679893 0)
(0.0293535 -0.0860041 0)
(0.0324696 -0.118029 0)
(-0.00564757 -0.176877 0)
(0.0217983 -0.261325 0)
(0.0128589 0.067676 0)
(0.0292655 0.104434 0)
(0.0474899 0.114967 0)
(0.0627197 0.113026 0)
(0.0748146 0.100528 0)
(0.0834844 0.0822473 0)
(0.0887576 0.0639036 0)
(0.0923319 0.0473118 0)
(0.0928945 0.0333286 0)
(0.0941217 0.0208597 0)
(0.0911495 0.00992934 0)
(0.0905898 -0.00138214 0)
(0.0838637 -0.0121931 0)
(0.0815298 -0.0255159 0)
(0.0694773 -0.038626 0)
(0.065253 -0.0570216 0)
(0.0415354 -0.0724875 0)
(0.0407921 -0.105473 0)
(-0.00315417 -0.167658 0)
(0.0276999 -0.258881 0)
(0.00625315 0.042018 0)
(0.0275266 0.0768295 0)
(0.0487703 0.0903311 0)
(0.0679744 0.0921323 0)
(0.0850255 0.0845772 0)
(0.0989373 0.0714843 0)
(0.108312 0.0572375 0)
(0.116133 0.0433349 0)
(0.118531 0.0310903 0)
(0.121927 0.019795 0)
(0.118998 0.0103221 0)
(0.118737 0.000446019 0)
(0.110639 -0.00817735 0)
(0.106624 -0.0189755 0)
(0.092027 -0.028457 0)
(0.0833245 -0.0430127 0)
(0.0556671 -0.0556955 0)
(0.0513396 -0.0893359 0)
(0.000520107 -0.153499 0)
(0.0355783 -0.248662 0)
(-0.00160127 0.0438546 0)
(0.0146942 0.0664721 0)
(0.0389168 0.0756464 0)
(0.0623866 0.0764029 0)
(0.0838265 0.0708204 0)
(0.104319 0.0609445 0)
(0.118292 0.0505397 0)
(0.131395 0.0401464 0)
(0.136481 0.031801 0)
(0.142658 0.022622 0)
(0.141154 0.0159735 0)
(0.141531 0.0076921 0)
(0.134034 0.00217137 0)
(0.129113 -0.00633295 0)
(0.114141 -0.0121037 0)
(0.104165 -0.0236123 0)
(0.0765088 -0.0350511 0)
(0.0710873 -0.0688313 0)
(0.0143018 -0.129385 0)
(0.0513914 -0.217772 0)
(-0.0084752 0.0109158 0)
(-0.00680028 0.0168227 0)
(0.0232565 0.0277743 0)
(0.0542666 0.0330153 0)
(0.0805632 0.033886 0)
(0.106385 0.0305039 0)
(0.124793 0.0267921 0)
(0.142321 0.0207592 0)
(0.152455 0.016925 0)
(0.161917 0.0116983 0)
(0.165345 0.00911058 0)
(0.168308 0.00434325 0)
(0.16626 0.00229101 0)
(0.163679 -0.00278464 0)
(0.154911 -0.00528301 0)
(0.14844 -0.0128641 0)
(0.129636 -0.0198075 0)
(0.121568 -0.0456175 0)
(0.0623021 -0.0883293 0)
(0.0879623 -0.15947 0)
(0.0472778 0.0977927 0)
(0.0531116 0.0574805 0)
(0.0870682 0.0358302 0)
(0.116299 0.0272144 0)
(0.141171 0.0235464 0)
(0.167251 0.0204104 0)
(0.189144 0.0182415 0)
(0.210002 0.0157643 0)
(0.225852 0.0141545 0)
(0.240131 0.0122656 0)
(0.249872 0.0110868 0)
(0.258549 0.00949888 0)
(0.26319 0.00843382 0)
(0.266946 0.00668277 0)
(0.266474 0.00510062 0)
(0.263179 0.00253371 0)
(0.253559 0.000919726 0)
(0.236904 -0.00830531 0)
(0.180875 -0.020597 0)
(0.168745 -0.116345 0)
)
;

boundaryField
{
    movingWall
    {
        type            fixedValue;
        value           uniform (1 0 0);
    }
    fixedWalls
    {
        type            noSlip;
    }
    frontAndBack
    {
        type            empty;
    }
}


// ************************************************************************* //
