/*--------------------------------*- C++ -*----------------------------------*\
| =========                 |                                                 |
| \\      /  F ield         | OpenFOAM: The Open Source CFD Toolbox           |
|  \\    /   O peration     | Version:  4.1                                   |
|   \\  /    A nd           | Web:      www.OpenFOAM.org                      |
|    \\/     M anipulation  |                                                 |
\*---------------------------------------------------------------------------*/
FoamFile
{
    version     2.0;
    format      ascii;
    class       volScalarField;
    location    "0.5";
    object      epsilon;
}
// * * * * * * * * * * * * * * * * * * * * * * * * * * * * * * * * * * * * * //

dimensions      [0 2 -3 0 0 0 0];

internalField   nonuniform List<scalar> 
400
(
0.00109
0.00155249
0.00192106
0.00213572
0.0022516
0.00231638
0.00235726
0.00238688
0.00241002
0.00242785
0.00244069
0.00245058
0.00245384
0.00244658
0.00241972
0.00235577
0.00222295
0.00197403
0.00156296
0.00109384
0.00155787
0.0015242
0.0016779
0.00177175
0.00181847
0.00184049
0.00185132
0.00185748
0.00186162
0.00186468
0.00186708
0.00186947
0.00187055
0.00186867
0.00185975
0.00183592
0.00178293
0.00167946
0.00152445
0.00155946
0.00196571
0.00168132
0.0017559
0.00181461
0.00184556
0.00186008
0.00186664
0.00186978
0.00187159
0.00187296
0.00187423
0.00187538
0.00187576
0.00187423
0.00186798
0.00185191
0.00181759
0.00175468
0.00167919
0.00193111
0.00222019
0.00178665
0.00181995
0.00186085
0.00188412
0.00189534
0.00190033
0.00190254
0.00190368
0.00190453
0.00190541
0.00190612
0.00190623
0.00190477
0.00189954
0.00188671
0.00186032
0.0018147
0.00177419
0.00214898
0.00237004
0.00184429
0.00185675
0.00188893
0.0019084
0.00191806
0.0019224
0.00192425
0.00192511
0.00192571
0.00192634
0.00192686
0.00192685
0.00192542
0.00192063
0.00190917
0.00188602
0.00184762
0.00182292
0.00227056
0.0024638
0.00187569
0.00187688
0.00190476
0.00192239
0.00193129
0.00193532
0.00193705
0.00193784
0.00193838
0.00193898
0.00193955
0.0019396
0.0019383
0.00193379
0.00192292
0.00190083
0.00186543
0.00184878
0.00234692
0.0025337
0.00189504
0.00188869
0.00191419
0.0019309
0.00193942
0.00194333
0.00194505
0.00194588
0.00194651
0.00194727
0.0019481
0.00194847
0.00194755
0.00194351
0.00193317
0.00191151
0.00187801
0.00186787
0.00241134
0.00259789
0.00191022
0.00189713
0.00192086
0.00193698
0.00194526
0.0019491
0.00195083
0.00195177
0.00195262
0.00195372
0.00195506
0.00195613
0.00195605
0.00195305
0.00194385
0.00192318
0.00189217
0.00188976
0.00248134
0.0026659
0.00192522
0.00190493
0.00192686
0.00194238
0.00195039
0.0019541
0.00195584
0.00195691
0.00195807
0.00195968
0.0019618
0.00196413
0.00196561
0.00196475
0.00195823
0.00194077
0.00191451
0.00192461
0.00257275
0.00274324
0.00194215
0.00191361
0.0019334
0.00194812
0.00195566
0.00195911
0.00196075
0.00196193
0.00196346
0.00196576
0.00196901
0.00197312
0.00197755
0.00198048
0.00197985
0.00197097
0.001957
0.00199115
0.00271237
0.00283433
0.00196243
0.00192417
0.00194125
0.00195477
0.00196152
0.00196445
0.00196582
0.00196702
0.00196891
0.00197205
0.00197683
0.00198347
0.00199208
0.0020024
0.00201378
0.00202603
0.00204785
0.00214696
0.00299554
0.00294447
0.00198754
0.00193754
0.00195101
0.00196271
0.00196822
0.00197032
0.00197121
0.00197229
0.0019745
0.00197857
0.00198517
0.00199524
0.00201018
0.00203257
0.00206781
0.00213025
0.00226608
0.0026382
0.00388705
0.00308101
0.00201941
0.00195475
0.00196339
0.0019726
0.00197651
0.00197762
0.00197801
0.00197903
0.00198164
0.0019867
0.00199533
0.00200945
0.00203285
0.00207405
0.00215459
0.00233785
0.00283601
0.00436277
0.0071861
0.00325658
0.00206055
0.00197726
0.00198014
0.00198703
0.00199004
0.00199101
0.00199172
0.00199343
0.00199709
0.00200364
0.00201454
0.00203274
0.00206544
0.0021322
0.00229171
0.00274512
0.00424514
0.00906786
0.016517
0.00347933
0.00211395
0.00200932
0.00200922
0.00201716
0.00202246
0.00202642
0.00203066
0.00203611
0.00204354
0.00205376
0.00206827
0.00209057
0.00213077
0.00222221
0.00248709
0.00338478
0.00651835
0.0165994
0.0320363
0.00378823
0.0021886
0.00207364
0.00208275
0.00210408
0.00212334
0.0021414
0.00215949
0.00217833
0.00219835
0.00222001
0.00224418
0.00227325
0.00231629
0.00241109
0.00271915
0.00390131
0.00804882
0.0226613
0.0480171
0.00408226
0.00234888
0.00227655
0.00235029
0.00242978
0.00250223
0.00257112
0.00263835
0.0027048
0.0027706
0.00283534
0.00289831
0.00295723
0.00301189
0.00307291
0.00327699
0.00421332
0.00856758
0.0264556
0.064289
0.00469533
0.00296944
0.00332376
0.0037326
0.0040775
0.00438603
0.0046804
0.00496832
0.00525313
0.00553568
0.00581183
0.00607756
0.00631073
0.00650657
0.00658714
0.0066096
0.00723375
0.0123706
0.0344734
0.0873435
0.00604098
0.00842382
0.0127004
0.0156789
0.0178122
0.0195452
0.0210692
0.0224676
0.0237933
0.025088
0.0263358
0.0275544
0.0285777
0.0295379
0.0300902
0.0303231
0.033054
0.0441942
0.077051
0.126322
0.0444396
0.0871422
0.130014
0.156344
0.172391
0.182342
0.188486
0.192222
0.194517
0.196113
0.197289
0.198431
0.1991
0.199746
0.199921
0.20047
0.202566
0.205839
0.216759
0.180582
)
;

boundaryField
{
    movingWall
    {
        Cmu             0.09;
        kappa           0.41;
        E               9.8;
        type            epsilonWallFunction;
        value           nonuniform List<scalar> 
20
(
0.0444396
0.0871422
0.130014
0.156344
0.172391
0.182342
0.188486
0.192222
0.194517
0.196113
0.197289
0.198431
0.1991
0.199746
0.199921
0.20047
0.202566
0.205839
0.216759
0.180582
)
;
    }
    fixedWalls
    {
        Cmu             0.09;
        kappa           0.41;
        E               9.8;
        type            epsilonWallFunction;
        value           nonuniform List<scalar> 
60
(
0.00109
0.00155787
0.00196571
0.00222019
0.00237004
0.0024638
0.0025337
0.00259789
0.0026659
0.00274324
0.00283433
0.00294447
0.00308101
0.00325658
0.00347933
0.00378823
0.00408226
0.00469533
0.00604098
0.0444396
0.00109384
0.00155946
0.00193111
0.00214898
0.00227056
0.00234692
0.00241134
0.00248134
0.00257275
0.00271237
0.00299554
0.00388705
0.0071861
0.016517
0.0320363
0.0480171
0.064289
0.0873435
0.126322
0.180582
0.00109
0.00155249
0.00192106
0.00213572
0.0022516
0.00231638
0.00235726
0.00238688
0.00241002
0.00242785
0.00244069
0.00245058
0.00245384
0.00244658
0.00241972
0.00235577
0.00222295
0.00197403
0.00156296
0.00109384
)
;
    }
    frontAndBack
    {
        type            empty;
    }
}


// ************************************************************************* //
