/*--------------------------------*- C++ -*----------------------------------*\
| =========                 |                                                 |
| \\      /  F ield         | OpenFOAM: The Open Source CFD Toolbox           |
|  \\    /   O peration     | Version:  4.1                                   |
|   \\  /    A nd           | Web:      www.OpenFOAM.org                      |
|    \\/     M anipulation  |                                                 |
\*---------------------------------------------------------------------------*/
FoamFile
{
    version     2.0;
    format      ascii;
    class       volScalarField;
    location    "0.5";
    object      k;
}
// * * * * * * * * * * * * * * * * * * * * * * * * * * * * * * * * * * * * * //

dimensions      [0 2 -2 0 0 0 0];

internalField   nonuniform List<scalar> 
400
(
0.000354389
0.000449283
0.000518412
0.000556775
0.000577044
0.00058827
0.000595321
0.000600409
0.000604371
0.000607422
0.000609617
0.000611297
0.000611851
0.000610614
0.000606025
0.000595074
0.000572129
0.000528082
0.000451343
0.000355258
0.000450319
0.000803407
0.000981483
0.00107392
0.00112043
0.00114344
0.00115552
0.00116317
0.00116931
0.00117499
0.00118031
0.00118469
0.0011873
0.00118692
0.00117895
0.0011553
0.00110214
0.000997094
0.000800651
0.000450687
0.00052651
0.000999687
0.00122995
0.00135161
0.00141439
0.00144542
0.00146067
0.00146888
0.00147439
0.00147899
0.00148316
0.00148647
0.00148768
0.00148405
0.0014696
0.00143412
0.00136113
0.00122439
0.000974953
0.000520305
0.000571555
0.00110665
0.00136768
0.00150814
0.00158239
0.00161962
0.00163761
0.00164653
0.00165169
0.00165545
0.00165853
0.00166037
0.00165958
0.00165236
0.0016319
0.00158683
0.00149951
0.00134204
0.00106172
0.000559187
0.000597394
0.00116393
0.00144376
0.00159657
0.00167872
0.00172037
0.00174033
0.00174976
0.00175458
0.00175757
0.00175954
0.00176005
0.00175721
0.00174676
0.00172124
0.00166861
0.00157064
0.00139899
0.00109988
0.00058042
0.000613337
0.00119397
0.00148464
0.00164505
0.00173217
0.0017766
0.00179775
0.00180737
0.00181187
0.00181421
0.00181527
0.00181467
0.00181011
0.00179703
0.0017675
0.00170909
0.00160336
0.00142187
0.0011113
0.000593633
0.000625093
0.00121033
0.00150662
0.00167116
0.00176094
0.00180679
0.00182846
0.00183806
0.00184225
0.00184409
0.00184459
0.00184317
0.00183739
0.00182235
0.00178978
0.00172696
0.00161526
0.00142688
0.00110918
0.00060472
0.000635769
0.00122086
0.00151959
0.00168591
0.0017767
0.00182292
0.0018446
0.00185402
0.00185795
0.0018595
0.00185973
0.00185787
0.00185132
0.00183492
0.00179999
0.00173348
0.00161686
0.00142218
0.00109751
0.000616703
0.000646959
0.00122972
0.00152917
0.00169579
0.00178644
0.00183229
0.00185357
0.00186269
0.00186642
0.00186785
0.00186802
0.00186603
0.00185908
0.00184169
0.00180476
0.00173475
0.00161279
0.00141067
0.00107731
0.000632278
0.000659548
0.00123907
0.00153833
0.0017043
0.00179398
0.00183887
0.00185942
0.00186808
0.0018716
0.001873
0.00187322
0.00187129
0.00186416
0.00184595
0.00180697
0.00173313
0.00160457
0.00139255
0.00104622
0.000656014
0.000674212
0.00125016
0.00154866
0.00171322
0.00180112
0.00184445
0.00186387
0.00187184
0.00187502
0.00187632
0.00187658
0.0018747
0.00186736
0.0018482
0.00180692
0.00172825
0.00159107
0.00136525
0.00100097
0.000704212
0.000691719
0.00126396
0.00156109
0.00172323
0.00180833
0.0018493
0.00186701
0.00187386
0.00187639
0.00187733
0.00187739
0.00187527
0.00186738
0.0018468
0.00180218
0.00171679
0.00156732
0.00132238
0.000982385
0.000849686
0.000713102
0.00128146
0.001576
0.00173399
0.00181468
0.00185205
0.00186721
0.0018725
0.00187395
0.00187412
0.0018734
0.00187034
0.00186096
0.00183759
0.00178747
0.00169119
0.00152295
0.00126958
0.00111919
0.0013037
0.00074011
0.00130335
0.00159262
0.00174327
0.00181713
0.00184967
0.00186171
0.00186471
0.00186443
0.00186299
0.00186063
0.00185559
0.00184333
0.00181509
0.00175563
0.00164134
0.00144977
0.00133511
0.00159501
0.0022681
0.000773613
0.00132916
0.00160734
0.00174593
0.00181115
0.00183743
0.00184496
0.0018451
0.00184227
0.0018386
0.00183398
0.00182626
0.00181029
0.0017757
0.00170354
0.00156398
0.00142973
0.00148668
0.00241544
0.00347771
0.000818898
0.00135395
0.00161298
0.00173645
0.00179008
0.00180806
0.00181098
0.00180799
0.00180319
0.00179804
0.0017921
0.00178303
0.00176527
0.001727
0.00164649
0.00150071
0.00141015
0.00163341
0.00305709
0.00450608
0.00086073
0.00137763
0.00160801
0.00171131
0.00175306
0.0017662
0.00176832
0.00176657
0.00176437
0.00176266
0.00176096
0.00175742
0.001747
0.00171814
0.00164581
0.00150847
0.00141319
0.00170745
0.00337589
0.00545398
0.00094504
0.001409
0.0016318
0.00173656
0.0017868
0.00181316
0.0018325
0.00185104
0.00187109
0.00189304
0.0019162
0.00193949
0.00195732
0.00196302
0.00192826
0.0018285
0.00173884
0.00207591
0.00387398
0.00667515
0.00111918
0.00175769
0.00219883
0.00245644
0.00262544
0.00276223
0.00288928
0.00301313
0.00313571
0.00325799
0.00337731
0.00349374
0.00359352
0.00368544
0.00373792
0.00374276
0.00387579
0.00442621
0.00629888
0.00852189
0.004248
0.00665707
0.00869192
0.00982935
0.0104913
0.0108914
0.0111339
0.0112785
0.0113645
0.0114219
0.0114618
0.0115009
0.0115224
0.0115438
0.0115498
0.0115701
0.0116509
0.0117779
0.0121971
0.0108068
)
;

boundaryField
{
    movingWall
    {
        type            kqRWallFunction;
        value           nonuniform List<scalar> 
20
(
0.004248
0.00665707
0.00869192
0.00982935
0.0104913
0.0108914
0.0111339
0.0112785
0.0113645
0.0114219
0.0114618
0.0115009
0.0115224
0.0115438
0.0115498
0.0115701
0.0116509
0.0117779
0.0121971
0.0108068
)
;
    }
    fixedWalls
    {
        type            kqRWallFunction;
        value           nonuniform List<scalar> 
60
(
0.000354389
0.000450319
0.00052651
0.000571555
0.000597394
0.000613337
0.000625093
0.000635769
0.000646959
0.000659548
0.000674212
0.000691719
0.000713102
0.00074011
0.000773613
0.000818898
0.00086073
0.00094504
0.00111918
0.004248
0.000355258
0.000450687
0.000520305
0.000559187
0.00058042
0.000593633
0.00060472
0.000616703
0.000632278
0.000656014
0.000704212
0.000849686
0.0013037
0.0022681
0.00347771
0.00450608
0.00545398
0.00667515
0.00852189
0.0108068
0.000354389
0.000449283
0.000518412
0.000556775
0.000577044
0.00058827
0.000595321
0.000600409
0.000604371
0.000607422
0.000609617
0.000611297
0.000611851
0.000610614
0.000606025
0.000595074
0.000572129
0.000528082
0.000451343
0.000355258
)
;
    }
    frontAndBack
    {
        type            empty;
    }
}


// ************************************************************************* //
