/*--------------------------------*- C++ -*----------------------------------*\
| =========                 |                                                 |
| \\      /  F ield         | OpenFOAM: The Open Source CFD Toolbox           |
|  \\    /   O peration     | Version:  4.1                                   |
|   \\  /    A nd           | Web:      www.OpenFOAM.org                      |
|    \\/     M anipulation  |                                                 |
\*---------------------------------------------------------------------------*/
FoamFile
{
    version     2.0;
    format      ascii;
    class       volScalarField;
    location    "0.5";
    object      nut;
}
// * * * * * * * * * * * * * * * * * * * * * * * * * * * * * * * * * * * * * //

dimensions      [0 2 -1 0 0 0 0];

internalField   nonuniform List<scalar> 
400
(
1.037e-05
1.17018e-05
1.25908e-05
1.30634e-05
1.33097e-05
1.34458e-05
1.35312e-05
1.35927e-05
1.36405e-05
1.36773e-05
1.37039e-05
1.37239e-05
1.37306e-05
1.37156e-05
1.36603e-05
1.35286e-05
1.32526e-05
1.27142e-05
1.17302e-05
1.03843e-05
1.17152e-05
3.81129e-05
5.16703e-05
5.85851e-05
6.21306e-05
6.39347e-05
6.49103e-05
6.55546e-05
6.61011e-05
6.66358e-05
6.71543e-05
6.75662e-05
6.78256e-05
6.78508e-05
6.72636e-05
6.54299e-05
6.13165e-05
5.32777e-05
3.78458e-05
1.17225e-05
1.26922e-05
5.34958e-05
7.75385e-05
9.06076e-05
9.75558e-05
0.000101088
0.000102869
0.000103854
0.000104534
0.000105111
0.000105632
0.000106038
0.00010619
0.000105759
0.000104056
9.9953e-05
9.17377e-05
7.68926e-05
5.0946e-05
1.26168e-05
1.32425e-05
6.16911e-05
9.25021e-05
0.000110005
0.000119608
0.000124561
0.000127008
0.000128248
0.000128975
0.000129505
0.000129928
0.000130167
0.000130036
0.000129006
0.000126177
0.000120116
0.000108781
8.93239e-05
5.71827e-05
1.30955e-05
1.35522e-05
6.61104e-05
0.000101037
0.000121452
0.000132902
0.000138875
0.000141795
0.000143198
0.000143923
0.000144371
0.000144647
0.000144692
0.000144225
0.000142621
0.00013883
0.000131252
0.000117719
9.53359e-05
5.9726e-05
1.33535e-05
1.37415e-05
6.84018e-05
0.000105693
0.000127868
0.000140469
0.000147087
0.000150297
0.000151775
0.000152468
0.000152819
0.000152951
0.000152804
0.000152033
0.000149946
0.000145396
0.000136714
0.00012172
9.75401e-05
6.01196e-05
1.35139e-05
1.38796e-05
6.9572e-05
0.000108166
0.000131309
0.000144535
0.00015149
0.000154834
0.000156327
0.000156972
0.000157234
0.00015726
0.000156951
0.000155937
0.000153469
0.000148339
0.000138847
0.000122843
9.75707e-05
5.92793e-05
1.36487e-05
1.4003e-05
7.02244e-05
0.000109547
0.000133173
0.000146672
0.000153744
0.000157113
0.00015858
0.000159177
0.000159373
0.000159323
0.000158896
0.000157691
0.000154916
0.000149303
0.000139129
0.00012234
9.62044e-05
5.73659e-05
1.37946e-05
1.41303e-05
7.06926e-05
0.000110478
0.000134318
0.000147871
0.00015492
0.000158239
0.000159658
0.00016021
0.000160361
0.000160258
0.000159744
0.000158369
0.000155302
0.000149202
0.00013831
0.000120621
9.35482e-05
5.42723e-05
1.3985e-05
1.42716e-05
7.11467e-05
0.000111298
0.000135211
0.000148683
0.000155614
0.000158832
0.000160181
0.000160689
0.000160804
0.000160653
0.000160057
0.000158509
0.000155079
0.000148379
0.000136543
0.000117565
8.91809e-05
4.94747e-05
1.42798e-05
1.44339e-05
7.16767e-05
0.000112179
0.000136077
0.00014936
0.000156094
0.00015916
0.000160411
0.000160859
0.000160928
0.000160715
0.000160007
0.000158224
0.000154324
0.000146746
0.000133489
0.000112454
8.19159e-05
4.20014e-05
1.48996e-05
1.4625e-05
7.2342e-05
0.000113201
0.000136984
0.000149949
0.00015638
0.00015922
0.000160319
0.000160663
0.000160644
0.000160324
0.000159431
0.000157294
0.000152702
0.000143812
0.000128282
0.000103784
6.94508e-05
3.29229e-05
1.67163e-05
1.48543e-05
7.31866e-05
0.000114357
0.000137825
0.000150247
0.000156188
0.000158667
0.000159535
0.0001597
0.000159519
0.000158992
0.000157787
0.000155109
0.000149498
0.000138645
0.000119471
8.92894e-05
5.11509e-05
2.58398e-05
2.12864e-05
1.51382e-05
7.41964e-05
0.000115452
0.000138126
0.000149559
0.000154729
0.000156673
0.000157122
0.00015694
0.00015641
0.000155505
0.000153826
0.000150442
0.000143558
0.000130101
0.000105798
6.89094e-05
3.77904e-05
2.52503e-05
2.80308e-05
1.54808e-05
7.52142e-05
0.00011572
0.000136543
0.000146357
0.00015024
0.000151177
0.000150884
0.000150019
0.000148879
0.000147395
0.000145131
0.000141083
0.000133181
0.000117533
8.85145e-05
5.43524e-05
3.05168e-05
3.16331e-05
3.39771e-05
1.59318e-05
7.53842e-05
0.000112919
0.000130295
0.000137064
0.000138563
0.000137838
0.000136234
0.000134338
0.000132356
0.0001302
0.000127498
0.000123373
0.000115887
0.000101193
7.4542e-05
4.58739e-05
2.98333e-05
3.71171e-05
3.80579e-05
1.63334e-05
7.27193e-05
0.000102221
0.000112144
0.000113833
0.000112201
0.000109456
0.000106457
0.000103583
0.000100927
9.84322e-05
9.59066e-05
9.28849e-05
8.821e-05
7.93322e-05
6.24945e-05
4.266e-05
3.06252e-05
3.87705e-05
4.16421e-05
1.71189e-05
6.01715e-05
7.21018e-05
7.27126e-05
7.04695e-05
6.74596e-05
6.45725e-05
6.20678e-05
5.99809e-05
5.82627e-05
5.68608e-05
5.57043e-05
5.46372e-05
5.33016e-05
5.08015e-05
4.55255e-05
3.76181e-05
3.13524e-05
3.91809e-05
4.59128e-05
1.8661e-05
3.30079e-05
3.42616e-05
3.4637e-05
3.48281e-05
3.51337e-05
3.56593e-05
3.63681e-05
3.7193e-05
3.80782e-05
3.89796e-05
3.98687e-05
4.06681e-05
4.13849e-05
4.17905e-05
4.15768e-05
4.09015e-05
3.98971e-05
4.63437e-05
5.17411e-05
3.65461e-05
4.57699e-05
5.22976e-05
5.56174e-05
5.74631e-05
5.85491e-05
5.91914e-05
5.95587e-05
5.97568e-05
5.98702e-05
5.99306e-05
5.99922e-05
6.00143e-05
6.00427e-05
6.00521e-05
6.00994e-05
6.03103e-05
6.06525e-05
6.17698e-05
5.82057e-05
)
;

boundaryField
{
    movingWall
    {
        type            nutkWallFunction;
        Cmu             0.09;
        kappa           0.41;
        E               9.8;
        value           nonuniform List<scalar> 
20
(
0
0
8.38501e-07
1.38096e-06
1.68013e-06
1.85567e-06
1.96029e-06
2.02207e-06
2.05857e-06
2.08283e-06
2.0997e-06
2.11614e-06
2.12517e-06
2.13417e-06
2.13668e-06
2.14523e-06
2.17901e-06
2.23189e-06
2.40411e-06
1.81889e-06
)
;
    }
    fixedWalls
    {
        type            nutkWallFunction;
        Cmu             0.09;
        kappa           0.41;
        E               9.8;
        value           nonuniform List<scalar> 
60
(
0
0
0
0
0
0
0
0
0
0
0
0
0
0
0
0
0
0
0
0
0
0
0
0
0
0
0
0
0
0
0
0
0
0
0
0
0
0
7.53965e-07
1.81889e-06
0
0
0
0
0
0
0
0
0
0
0
0
0
0
0
0
0
0
0
0
)
;
    }
    frontAndBack
    {
        type            empty;
    }
}


// ************************************************************************* //
