/*--------------------------------*- C++ -*----------------------------------*\
| =========                 |                                                 |
| \\      /  F ield         | OpenFOAM: The Open Source CFD Toolbox           |
|  \\    /   O peration     | Version:  4.1                                   |
|   \\  /    A nd           | Web:      www.OpenFOAM.org                      |
|    \\/     M anipulation  |                                                 |
\*---------------------------------------------------------------------------*/
FoamFile
{
    version     2.0;
    format      ascii;
    class       volScalarField;
    location    "0.5";
    object      p;
}
// * * * * * * * * * * * * * * * * * * * * * * * * * * * * * * * * * * * * * //

dimensions      [0 2 -2 0 0 0 0];

internalField   nonuniform List<scalar> 
400
(
2.18768e-08
-6.32083e-06
-5.28538e-06
3.31746e-06
2.06711e-05
4.71473e-05
8.26396e-05
0.00012681
0.000179144
0.000238812
0.00030492
0.000376029
0.000449719
0.000523294
0.000593183
0.000655248
0.0007052
0.000739521
0.000756847
0.000756843
5.95631e-06
-8.62839e-07
9.81903e-07
1.0833e-05
2.85129e-05
5.42726e-05
8.82602e-05
0.000130387
0.000180338
0.000237544
0.000301223
0.000369839
0.000441488
0.000513573
0.00058283
0.000645503
0.000697672
0.000735496
0.000755423
0.000755885
3.95532e-06
-5.44509e-06
-4.66747e-06
5.61739e-06
2.36879e-05
4.92738e-05
8.25809e-05
0.000123729
0.000172648
0.000229023
0.000292224
0.000361054
0.000433823
0.00050815
0.000580959
0.000648549
0.000706678
0.00075012
0.00077254
0.000771917
-6.58468e-06
-1.9891e-05
-2.2082e-05
-1.2941e-05
4.88666e-06
3.04416e-05
6.37376e-05
0.000104972
0.000154294
0.000211673
0.000276774
0.00034877
0.000426252
0.000507039
0.000588048
0.000665166
0.000733004
0.000784057
0.000809295
0.000806939
-2.69778e-05
-4.41113e-05
-4.97923e-05
-4.27749e-05
-2.59326e-05
-7.05917e-07
3.27006e-05
7.45091e-05
0.00012507
0.000184678
0.000253388
0.000330806
0.000415944
0.000506855
0.000600393
0.000691785
0.000774023
0.000836738
0.000867865
0.000865375
-5.74848e-05
-7.82184e-05
-8.74295e-05
-8.30173e-05
-6.7749e-05
-4.33236e-05
-1.0087e-05
3.22318e-05
8.42178e-05
0.000146557
0.000219808
0.00030415
0.000399249
0.000503571
0.00061408
0.000725389
0.000828616
0.000909765
0.000952383
0.000952611
-9.79053e-05
-0.000122285
-0.000135134
-0.000133673
-0.000120504
-9.74763e-05
-6.50089e-05
-2.27333e-05
3.02288e-05
9.50514e-05
0.000172944
0.000264853
0.000371512
0.000492127
0.00062428
0.000762394
0.000895752
0.00100574
0.00106901
0.00107658
-0.000147957
-0.000176309
-0.000193099
-0.000194977
-0.000184477
-0.00016361
-0.000132846
-9.16845e-05
-3.89009e-05
2.7268e-05
0.000108887
0.000208118
0.000326551
0.000465463
0.000623794
0.000796802
0.000972643
0.00112721
0.00122659
0.00124942
-0.000207475
-0.000240363
-0.00026158
-0.000267275
-0.000260097
-0.000242335
-0.000214554
-0.000176131
-0.000125476
-6.0183e-05
2.28114e-05
0.000127034
0.000256096
0.00041364
0.000601566
0.000818028
0.0010522
0.00127481
0.00143757
0.00148873
-0.000276524
-0.000314718
-0.000340987
-0.000351012
-0.00034784
-0.000334265
-0.000311059
-0.000277545
-0.000231803
-0.000170788
-9.0393e-05
1.45127e-05
0.000149939
0.000323129
0.000540839
0.000807503
0.00111781
0.00144165
0.00171885
0.00181591
-0.000355553
-0.000399987
-0.000431955
-0.000446702
-0.000448105
-0.000439801
-0.000422964
-0.000396987
-0.000359751
-0.000307704
-0.000235821
-0.000137391
-3.62917e-06
0.000176345
0.000417162
0.000733662
0.00113386
0.00159996
0.00208206
0.00224718
-0.000445674
-0.000497344
-0.000535465
-0.000554893
-0.000561036
-0.000558863
-0.000550181
-0.000534636
-0.000510122
-0.000472897
-0.000417451
-0.000336003
-0.000217703
-4.74889e-05
0.00019769
0.000547334
0.00103545
0.00168035
0.00246993
0.00275355
-0.000549455
-0.000608973
-0.00065302
-0.000676094
-0.000686309
-0.00069058
-0.000691542
-0.000689262
-0.000681926
-0.000666048
-0.000636371
-0.000585249
-0.00050131
-0.00036691
-0.000155103
0.00017991
0.000703442
0.00148471
0.00262072
0.00316177
-0.000671564
-0.000738495
-0.000786735
-0.00081065
-0.000822914
-0.000833088
-0.000844535
-0.000857838
-0.000871757
-0.000883579
-0.000889268
-0.000883119
-0.000856599
-0.000795261
-0.00067383
-0.000454585
-8.44217e-05
0.000621607
0.00188894
0.00304929
-0.000824561
-0.000893061
-0.000940263
-0.000958864
-0.000969067
-0.000983293
-0.00100493
-0.00103513
-0.00107333
-0.0011179
-0.00116688
-0.00121834
-0.0012703
-0.00131856
-0.00135463
-0.00137742
-0.00136239
-0.00111229
-0.000339134
0.00193768
-0.00102013
-0.0010753
-0.00111155
-0.00111513
-0.00111739
-0.00113185
-0.00116251
-0.0012104
-0.00127494
-0.00135529
-0.00145176
-0.00156702
-0.00170814
-0.00188713
-0.00212347
-0.00246866
-0.00292722
-0.00309509
-0.00332877
7.72849e-06
-0.00128968
-0.00129776
-0.00128901
-0.00125499
-0.00124259
-0.0012582
-0.00130117
-0.00136947
-0.0014621
-0.00157896
-0.00172214
-0.0018974
-0.00211957
-0.00241524
-0.00283235
-0.00342275
-0.00429186
-0.00432812
-0.00574959
-0.000883521
-0.00152198
-0.00138534
-0.00131733
-0.00128
-0.00128266
-0.00131981
-0.0013864
-0.00148203
-0.00160737
-0.00176279
-0.00195114
-0.00217763
-0.00246277
-0.00283109
-0.00337151
-0.00402585
-0.00506394
-0.00463107
-0.00607188
0.00383818
-0.00350238
-0.00272889
-0.00224437
-0.00187847
-0.00169218
-0.00161959
-0.00162527
-0.00169185
-0.00181155
-0.00197683
-0.00218712
-0.00243734
-0.00275454
-0.00315454
-0.00369805
-0.00431395
-0.00471855
-0.00382627
-0.00145284
0.0155186
0.00129177
0.0020515
0.000714133
-0.000136284
-0.000550177
-0.000795504
-0.00100467
-0.00121605
-0.00144162
-0.00168688
-0.0019639
-0.00227753
-0.0026496
-0.00307414
-0.00350305
-0.00370759
-0.00312653
-0.000280554
0.00735623
0.0254583
)
;

boundaryField
{
    movingWall
    {
        type            zeroGradient;
    }
    fixedWalls
    {
        type            zeroGradient;
    }
    frontAndBack
    {
        type            empty;
    }
}


// ************************************************************************* //
