/*--------------------------------*- C++ -*----------------------------------*\
| =========                 |                                                 |
| \\      /  F ield         | OpenFOAM: The Open Source CFD Toolbox           |
|  \\    /   O peration     | Version:  4.1                                   |
|   \\  /    A nd           | Web:      www.OpenFOAM.org                      |
|    \\/     M anipulation  |                                                 |
\*---------------------------------------------------------------------------*/
FoamFile
{
    version     2.0;
    format      ascii;
    class       surfaceScalarField;
    location    "0.5";
    object      phi;
}
// * * * * * * * * * * * * * * * * * * * * * * * * * * * * * * * * * * * * * //

dimensions      [0 3 -1 0 0 0 0];

internalField   nonuniform List<scalar> 
760
(
-1.87666e-08
1.87644e-08
-5.48357e-08
3.6069e-08
-9.86725e-08
4.38366e-08
-1.43257e-07
4.45845e-08
-1.84995e-07
4.17378e-08
-2.22204e-07
3.72093e-08
-2.54002e-07
3.17972e-08
-2.79752e-07
2.575e-08
-2.98811e-07
1.90597e-08
-3.10431e-07
1.16193e-08
-3.14071e-07
3.64042e-09
-3.0875e-07
-5.32157e-09
-2.93762e-07
-1.49883e-08
-2.68522e-07
-2.52397e-08
-2.32855e-07
-3.56672e-08
-1.8741e-07
-4.54445e-08
-1.34375e-07
-5.30357e-08
-7.87288e-08
-5.56459e-08
-2.98299e-08
-4.8899e-08
-2.98299e-08
-3.57851e-08
5.45495e-08
-7.965e-08
7.99339e-08
-1.25789e-07
8.99756e-08
-1.71877e-07
9.06721e-08
-2.15809e-07
8.56697e-08
-2.55815e-07
7.72151e-08
-2.90522e-07
6.65044e-08
-3.18848e-07
5.40757e-08
-3.39876e-07
4.00875e-08
-3.528e-07
2.45433e-08
-3.56649e-07
7.48956e-09
-3.50776e-07
-1.11949e-08
-3.34506e-07
-3.12575e-08
-3.07536e-07
-5.221e-08
-2.70102e-07
-7.31011e-08
-2.23244e-07
-9.23026e-08
-1.69008e-07
-1.07272e-07
-1.10427e-07
-1.14227e-07
-5.12728e-08
-1.08054e-07
-8.11027e-08
-4.51522e-08
9.97017e-08
-9.28193e-08
1.27601e-07
-1.39818e-07
1.36974e-07
-1.85861e-07
1.36715e-07
-2.29849e-07
1.29658e-07
-2.70345e-07
1.1771e-07
-3.0595e-07
1.02109e-07
-3.35438e-07
8.35641e-08
-3.57749e-07
6.23976e-08
-3.71922e-07
3.87166e-08
-3.77014e-07
1.25819e-08
-3.72251e-07
-1.59584e-08
-3.5698e-07
-4.65287e-08
-3.30885e-07
-7.83046e-08
-2.94149e-07
-1.09837e-07
-2.47582e-07
-1.3887e-07
-1.92621e-07
-1.62232e-07
-1.31066e-07
-1.75783e-07
-6.46808e-08
-1.74439e-07
-1.45783e-07
-4.94545e-08
1.49156e-07
-1.00736e-07
1.78883e-07
-1.50339e-07
1.86577e-07
-1.98149e-07
1.84526e-07
-2.43556e-07
1.75065e-07
-2.85484e-07
1.59639e-07
-3.22707e-07
1.39332e-07
-3.54034e-07
1.14891e-07
-3.78367e-07
8.67302e-08
-3.94675e-07
5.50242e-08
-4.01954e-07
1.98617e-08
-3.99279e-07
-1.8634e-08
-3.85821e-07
-5.9987e-08
-3.60986e-07
-1.03139e-07
-3.24535e-07
-1.46288e-07
-2.76681e-07
-1.86724e-07
-2.18133e-07
-2.2078e-07
-1.50096e-07
-2.4382e-07
-7.46096e-08
-2.49925e-07
-2.20393e-07
-5.19994e-08
2.01156e-07
-1.07046e-07
2.33929e-07
-1.60436e-07
2.39966e-07
-2.11583e-07
2.35673e-07
-2.59931e-07
2.23413e-07
-3.04615e-07
2.04323e-07
-3.44597e-07
1.79314e-07
-3.78802e-07
1.49096e-07
-4.06174e-07
1.14102e-07
-4.2566e-07
7.45103e-08
-4.36173e-07
3.03744e-08
-4.36594e-07
-1.82128e-08
-4.25763e-07
-7.08181e-08
-4.02591e-07
-1.26311e-07
-3.66143e-07
-1.82737e-07
-3.15774e-07
-2.37093e-07
-2.51375e-07
-2.85179e-07
-1.7384e-07
-3.21356e-07
-8.6203e-08
-3.37561e-07
-3.06596e-07
-5.46113e-08
2.55767e-07
-1.13891e-07
2.93209e-07
-1.71955e-07
2.9803e-07
-2.27629e-07
2.91347e-07
-2.80195e-07
2.75979e-07
-3.28864e-07
2.52992e-07
-3.72752e-07
2.23202e-07
-4.10933e-07
1.87277e-07
-4.42454e-07
1.45623e-07
-4.6629e-07
9.83463e-08
-4.81284e-07
4.53687e-08
-4.86114e-07
-1.33825e-08
-4.79179e-07
-7.77534e-08
-4.58727e-07
-1.46762e-07
-4.22861e-07
-2.18603e-07
-3.69733e-07
-2.90221e-07
-2.98021e-07
-3.56892e-07
-2.07963e-07
-4.11413e-07
-1.03408e-07
-4.42117e-07
-4.10004e-07
-5.81124e-08
3.13879e-07
-1.22429e-07
3.57526e-07
-1.86037e-07
3.61638e-07
-2.47224e-07
3.52534e-07
-3.05051e-07
3.33805e-07
-3.58738e-07
3.06679e-07
-4.07545e-07
2.72009e-07
-4.50731e-07
2.30464e-07
-4.87514e-07
1.82405e-07
-5.16972e-07
1.27805e-07
-5.3794e-07
6.63364e-08
-5.48959e-07
-2.3639e-09
-5.47917e-07
-7.87953e-08
-5.32306e-07
-1.62373e-07
-4.98975e-07
-2.51934e-07
-4.44317e-07
-3.44879e-07
-3.64902e-07
-4.36307e-07
-2.591e-07
-5.17214e-07
-1.30399e-07
-5.70818e-07
-5.40403e-07
-6.28713e-08
3.76751e-07
-1.33305e-07
4.27959e-07
-2.03405e-07
4.31739e-07
-2.70993e-07
4.20121e-07
-3.34917e-07
3.9773e-07
-3.94419e-07
3.66181e-07
-4.48933e-07
3.26523e-07
-4.9798e-07
2.7951e-07
-5.41045e-07
2.2547e-07
-5.77436e-07
1.64197e-07
-6.06098e-07
9.49985e-08
-6.25595e-07
1.71329e-08
-6.33387e-07
-7.1004e-08
-6.26219e-07
-1.69541e-07
-5.99414e-07
-2.78739e-07
-5.46865e-07
-3.97428e-07
-4.61467e-07
-5.21706e-07
-3.37017e-07
-6.41664e-07
-1.73313e-07
-7.34522e-07
-7.13716e-07
-6.91089e-08
4.45859e-07
-1.46984e-07
5.05834e-07
-2.24633e-07
5.09388e-07
-2.99434e-07
4.94922e-07
-3.70078e-07
4.68373e-07
-4.35894e-07
4.31998e-07
-4.96588e-07
3.87217e-07
-5.52055e-07
3.34976e-07
-6.02199e-07
2.75614e-07
-6.46742e-07
2.08739e-07
-6.85017e-07
1.33273e-07
-7.15579e-07
4.76947e-08
-7.36272e-07
-5.03103e-08
-7.43025e-07
-1.62789e-07
-7.29664e-07
-2.92099e-07
-6.86835e-07
-4.40257e-07
-6.01456e-07
-6.07085e-07
-4.57529e-07
-7.85591e-07
-2.42396e-07
-9.49656e-07
-9.56112e-07
-7.71109e-08
5.2297e-07
-1.64035e-07
5.92759e-07
-2.50404e-07
5.95757e-07
-3.33129e-07
5.77648e-07
-4.1083e-07
5.46074e-07
-4.83062e-07
5.0423e-07
-5.49957e-07
4.54112e-07
-6.11949e-07
3.96968e-07
-6.69543e-07
3.33209e-07
-7.23105e-07
2.62301e-07
-7.72627e-07
1.82796e-07
-8.17402e-07
9.24694e-08
-8.55839e-07
-1.18732e-08
-8.83999e-07
-1.34628e-07
-8.94789e-07
-2.81309e-07
-8.75349e-07
-4.59697e-07
-8.03907e-07
-6.78527e-07
-6.46076e-07
-9.43422e-07
-3.54529e-07
-1.2412e-06
-1.31064e-06
-8.7434e-08
6.10404e-07
-1.85411e-07
6.90736e-07
-2.81755e-07
6.92101e-07
-3.72895e-07
6.68788e-07
-4.57546e-07
6.30725e-07
-5.35725e-07
5.82409e-07
-6.08209e-07
5.26595e-07
-6.76165e-07
4.64925e-07
-7.40898e-07
3.97941e-07
-8.03664e-07
3.25067e-07
-8.65525e-07
2.44656e-07
-9.27056e-07
1.54001e-07
-9.88341e-07
4.94116e-08
-1.0469e-06
-7.60741e-08
-1.09649e-06
-2.31711e-07
-1.12195e-06
-4.3424e-07
-1.09032e-06
-7.10152e-07
-9.34526e-07
-1.09922e-06
-5.41356e-07
-1.63437e-06
-1.852e-06
-1.01163e-07
7.11567e-07
-2.12736e-07
8.02309e-07
-3.20252e-07
7.99616e-07
-4.19787e-07
7.68323e-07
-5.1053e-07
7.21468e-07
-5.93339e-07
6.65218e-07
-6.6992e-07
6.03176e-07
-7.4236e-07
5.37365e-07
-8.12903e-07
4.68484e-07
-8.83883e-07
3.96048e-07
-9.57774e-07
3.18547e-07
-1.03722e-06
2.33452e-07
-1.12459e-06
1.36774e-07
-1.22212e-06
2.14599e-08
-1.32711e-06
-1.26727e-07
-1.42641e-06
-3.34938e-07
-1.47754e-06
-6.59024e-07
-1.36901e-06
-1.20775e-06
-8.53505e-07
-2.14988e-06
-2.7055e-06
-1.20381e-07
8.31948e-07
-2.48624e-07
9.30552e-07
-3.67916e-07
9.18908e-07
-4.74699e-07
8.75106e-07
-5.69402e-07
8.16171e-07
-6.54299e-07
7.50116e-07
-7.32328e-07
6.81204e-07
-8.0659e-07
6.11627e-07
-8.80257e-07
5.42151e-07
-9.56718e-07
4.72508e-07
-1.03993e-06
4.0176e-07
-1.13491e-06
3.28429e-07
-1.24807e-06
2.49933e-07
-1.38705e-06
1.60445e-07
-1.55899e-06
4.52128e-08
-1.76003e-06
-1.33896e-07
-1.95023e-06
-4.68824e-07
-1.95146e-06
-1.20653e-06
-1.31445e-06
-2.78688e-06
-4.01995e-06
-1.48165e-07
9.80113e-07
-2.96207e-07
1.07859e-06
-4.26312e-07
1.04901e-06
-5.37073e-07
9.85867e-07
-6.31593e-07
9.10691e-07
-7.1437e-07
8.32893e-07
-7.89786e-07
7.56621e-07
-8.61878e-07
6.83719e-07
-9.34481e-07
6.14754e-07
-1.01163e-06
5.49659e-07
-1.09829e-06
4.88421e-07
-1.20138e-06
4.31512e-07
-1.33101e-06
3.79568e-07
-1.50137e-06
3.30808e-07
-1.72944e-06
2.73282e-07
-2.02626e-06
1.62919e-07
-2.3449e-06
-1.50182e-07
-2.4447e-06
-1.10672e-06
-1.75701e-06
-3.47457e-06
-5.77696e-06
-1.92019e-07
1.17213e-06
-3.59565e-07
1.24614e-06
-4.94822e-07
1.18427e-06
-6.02182e-07
1.09323e-06
-6.89257e-07
9.97765e-07
-7.63495e-07
9.07131e-07
-8.30629e-07
8.23756e-07
-8.95275e-07
7.48365e-07
-9.61316e-07
6.80795e-07
-1.03251e-06
6.20857e-07
-1.11355e-06
5.69455e-07
-1.21132e-06
5.29281e-07
-1.33664e-06
5.0489e-07
-1.50562e-06
4.99792e-07
-1.73882e-06
5.06485e-07
-2.04923e-06
4.73326e-07
-2.36039e-06
1.60975e-07
-2.36918e-06
-1.09793e-06
-1.7414e-06
-4.10235e-06
-7.51836e-06
-2.49453e-07
1.42159e-06
-4.33808e-07
1.43049e-06
-5.63147e-07
1.31361e-06
-6.53832e-07
1.18391e-06
-7.22003e-07
1.06594e-06
-7.77792e-07
9.6292e-07
-8.28698e-07
8.74662e-07
-8.79343e-07
7.99009e-07
-9.3236e-07
7.33813e-07
-9.89823e-07
6.7832e-07
-1.0543e-06
6.33933e-07
-1.12976e-06
6.04736e-07
-1.22281e-06
5.97939e-07
-1.34311e-06
6.20099e-07
-1.49869e-06
6.62065e-07
-1.68287e-06
6.57507e-07
-1.87019e-06
3.48289e-07
-1.67667e-06
-1.29145e-06
-1.25315e-06
-4.52587e-06
-8.77151e-06
-3.82607e-07
1.80419e-06
-5.36337e-07
1.58423e-06
-6.05128e-07
1.3824e-06
-6.44299e-07
1.22308e-06
-6.76056e-07
1.09769e-06
-7.03873e-07
9.90737e-07
-7.30252e-07
9.01041e-07
-7.57488e-07
8.26245e-07
-7.86832e-07
7.63157e-07
-8.18277e-07
7.09765e-07
-8.51304e-07
6.6696e-07
-8.84876e-07
6.38308e-07
-9.1871e-07
6.31774e-07
-9.49489e-07
6.50878e-07
-9.75418e-07
6.87994e-07
-9.33572e-07
6.15662e-07
-8.93861e-07
3.08578e-07
-7.81234e-07
-1.40408e-06
-7.80713e-07
-4.52639e-06
-9.55223e-06
-4.66266e-07
2.27046e-06
-5.02318e-07
1.62028e-06
-4.70069e-07
1.35015e-06
-4.36986e-07
1.19e-06
-4.02513e-07
1.06322e-06
-3.64279e-07
9.52503e-07
-3.25532e-07
8.62294e-07
-2.89193e-07
7.89906e-07
-2.55746e-07
7.2971e-07
-2.22998e-07
6.77017e-07
-1.87686e-07
6.31648e-07
-1.4312e-07
5.93743e-07
-8.37673e-08
5.72421e-07
5.1603e-09
5.61951e-07
1.35638e-07
5.57516e-07
2.64822e-07
4.86477e-07
5.80272e-07
-6.87142e-09
3.03884e-07
-1.12769e-06
1.28021e-07
-4.35053e-06
-9.42421e-06
-3.33963e-07
2.60442e-06
-1.63715e-07
1.45003e-06
1.82453e-07
1.00398e-06
5.28231e-07
8.44222e-07
8.56483e-07
7.3497e-07
1.16103e-06
6.47954e-07
1.44192e-06
5.81403e-07
1.70077e-06
5.3106e-07
1.93983e-06
4.90653e-07
2.16385e-06
4.52988e-07
2.37554e-06
4.19957e-07
2.58569e-06
3.83601e-07
2.79622e-06
3.61887e-07
3.03326e-06
3.24913e-07
3.29817e-06
2.92607e-07
3.59681e-06
1.87839e-07
3.73711e-06
-1.47181e-07
3.60689e-06
-9.97469e-07
2.10363e-06
-2.84727e-06
-7.32057e-06
2.60442e-06
4.05445e-06
5.05843e-06
5.90266e-06
6.63763e-06
7.28558e-06
7.86698e-06
8.39804e-06
8.8887e-06
9.34168e-06
9.76164e-06
1.01452e-05
1.05071e-05
1.0832e-05
1.11247e-05
1.13125e-05
1.11653e-05
1.01678e-05
7.32057e-06
)
;

boundaryField
{
    movingWall
    {
        type            calculated;
        value           uniform 0;
    }
    fixedWalls
    {
        type            calculated;
        value           uniform 0;
    }
    frontAndBack
    {
        type            empty;
        value           nonuniform 0();
    }
}


// ************************************************************************* //
