/*--------------------------------*- C++ -*----------------------------------*\
| =========                 |                                                 |
| \\      /  F ield         | OpenFOAM: The Open Source CFD Toolbox           |
|  \\    /   O peration     | Version:  4.1                                   |
|   \\  /    A nd           | Web:      www.OpenFOAM.org                      |
|    \\/     M anipulation  |                                                 |
\*---------------------------------------------------------------------------*/
FoamFile
{
    version     2.0;
    format      ascii;
    class       volVectorField;
    location    "0.5";
    object      U;
}
// * * * * * * * * * * * * * * * * * * * * * * * * * * * * * * * * * * * * * //

dimensions      [0 1 -1 0 0 0 0];

internalField   nonuniform List<vector> 
400
(
(-0.000147902 0.000150396 0)
(-0.00066823 0.000387329 0)
(-0.0015284 0.000504947 0)
(-0.00242812 0.000516104 0)
(-0.00329768 0.000477663 0)
(-0.00409048 0.000421058 0)
(-0.00478262 0.000357071 0)
(-0.00535958 0.000287795 0)
(-0.0058097 0.000211883 0)
(-0.00612038 0.000126929 0)
(-0.00626942 4.12049e-05 0)
(-0.00625711 -6.14242e-05 0)
(-0.00605331 -0.000170957 0)
(-0.00565078 -0.000288409 0)
(-0.00504003 -0.000410057 0)
(-0.00422479 -0.000526642 0)
(-0.00323183 -0.000617572 0)
(-0.00212771 -0.000639384 0)
(-0.00101901 -0.000522567 0)
(-0.000262217 -0.00025656 0)
(-0.000381766 0.000665976 0)
(-0.00113498 0.00114078 0)
(-0.00204533 0.00134458 0)
(-0.00298209 0.00136797 0)
(-0.0038924 0.00128948 0)
(-0.00473857 0.00115629 0)
(-0.00549082 0.000991452 0)
(-0.00612515 0.000803799 0)
(-0.00662216 0.000594785 0)
(-0.00696457 0.000363134 0)
(-0.00713452 0.000109324 0)
(-0.00711653 -0.000168404 0)
(-0.00689573 -0.000469001 0)
(-0.0064623 -0.000785239 0)
(-0.00581461 -0.00110317 0)
(-0.00496452 -0.00139653 0)
(-0.0039407 -0.00162058 0)
(-0.00279493 -0.00170312 0)
(-0.00160951 -0.00154148 0)
(-0.000548351 -0.00102613 0)
(-0.000520478 0.00152655 0)
(-0.00138776 0.00205544 0)
(-0.00231997 0.00225285 0)
(-0.00326079 0.00226184 0)
(-0.00417086 0.0021439 0)
(-0.00502306 0.00194076 0)
(-0.0057902 0.00167771 0)
(-0.00644621 0.00136797 0)
(-0.00696846 0.00101676 0)
(-0.00733698 0.000625295 0)
(-0.00753278 0.000194214 0)
(-0.00753852 -0.000276126 0)
(-0.00733934 -0.00078008 0)
(-0.00692487 -0.00130422 0)
(-0.00629313 -0.00182394 0)
(-0.00545314 -0.00229969 0)
(-0.00442514 -0.00267388 0)
(-0.00324586 -0.00286854 0)
(-0.00198295 -0.00278766 0)
(-0.000731183 -0.0022401 0)
(-0.000575162 0.00247953 0)
(-0.00152154 0.00304694 0)
(-0.00250867 0.00321647 0)
(-0.00348982 0.00319517 0)
(-0.00443058 0.00303203 0)
(-0.00531085 0.00275965 0)
(-0.00610855 0.00240132 0)
(-0.00679947 0.00197193 0)
(-0.00736077 0.0014792 0)
(-0.0077714 0.000926137 0)
(-0.00801106 0.000314178 0)
(-0.00806033 -0.000354076 0)
(-0.00790119 -0.0010699 0)
(-0.00751877 -0.00181419 0)
(-0.0069041 -0.00255383 0)
(-0.00605573 -0.00323886 0)
(-0.00498025 -0.00380158 0)
(-0.00370284 -0.00415717 0)
(-0.00229008 -0.00420172 0)
(-0.000845888 -0.00363453 0)
(-0.000599223 0.00349334 0)
(-0.00161283 0.00410945 0)
(-0.00267562 0.00424451 0)
(-0.00372662 0.00418162 0)
(-0.00472946 0.00396591 0)
(-0.00566612 0.00362212 0)
(-0.00651861 0.00316986 0)
(-0.0072658 0.00262375 0)
(-0.00788641 0.00199253 0)
(-0.0083596 0.00127996 0)
(-0.0086641 0.00048762 0)
(-0.00877785 -0.000381309 0)
(-0.00867767 -0.00131704 0)
(-0.00834047 -0.00229733 0)
(-0.00774524 -0.00328375 0)
(-0.00687434 -0.00421884 0)
(-0.00571652 -0.00502498 0)
(-0.00428632 -0.00560287 0)
(-0.00265665 -0.00581968 0)
(-0.00096913 -0.00523107 0)
(-0.000622888 0.00455675 0)
(-0.00170636 0.00524938 0)
(-0.00286048 0.00535529 0)
(-0.00400342 0.00524554 0)
(-0.00509365 0.0049705 0)
(-0.00611195 0.00455114 0)
(-0.00704285 0.00400419 0)
(-0.00786849 0.00334325 0)
(-0.00857023 0.00257686 0)
(-0.00912861 0.00170815 0)
(-0.00952215 0.00073715 0)
(-0.00972625 -0.000334976 0)
(-0.00971144 -0.00150083 0)
(-0.00944366 -0.00273901 0)
(-0.00888552 -0.00401041 0)
(-0.00799682 -0.00525361 0)
(-0.00674049 -0.00637993 0)
(-0.00511272 -0.00726462 0)
(-0.00318837 -0.00771952 0)
(-0.00115556 -0.00710512 0)
(-0.000658159 0.00568044 0)
(-0.00182506 0.006481 0)
(-0.00308698 0.00656779 0)
(-0.00434102 0.00640996 0)
(-0.00553937 0.00607029 0)
(-0.0066602 0.00557069 0)
(-0.00768988 0.00492717 0)
(-0.00861413 0.0041528 0)
(-0.00941807 0.00325525 0)
(-0.0100852 0.00223557 0)
(-0.0105952 0.00109008 0)
(-0.0109224 -0.000185451 0)
(-0.0110311 -0.00159019 0)
(-0.0108749 -0.00310995 0)
(-0.0103962 -0.00471196 0)
(-0.00952412 -0.00633742 0)
(-0.0081806 -0.007889 0)
(-0.00632258 -0.00920715 0)
(-0.00400369 -0.0100187 0)
(-0.00145582 -0.00940586 0)
(-0.000709422 0.00688622 0)
(-0.0019806 0.00782335 0)
(-0.00336967 0.00790034 0)
(-0.00475332 0.00769384 0)
(-0.00607721 0.00728448 0)
(-0.00731687 0.00669962 0)
(-0.00846093 0.00595747 0)
(-0.00949981 0.00507185 0)
(-0.0104242 0.00404955 0)
(-0.0112228 0.00288837 0)
(-0.0118793 0.00157846 0)
(-0.0123691 0.00010649 0)
(-0.0126535 -0.00153695 0)
(-0.012675 -0.00335509 0)
(-0.0123539 -0.00533246 0)
(-0.0115788 -0.00742651 0)
(-0.0102078 -0.00954396 0)
(-0.00811821 -0.0114931 0)
(-0.0052763 -0.0128913 0)
(-0.00194196 -0.0123762 0)
(-0.000778839 0.00820152 0)
(-0.00218063 0.00930039 0)
(-0.00371978 0.00937288 0)
(-0.00525174 0.00911416 0)
(-0.00671545 0.00862778 0)
(-0.00808485 0.00795118 0)
(-0.00935253 0.00710811 0)
(-0.0105158 0.00611506 0)
(-0.0115735 0.00497851 0)
(-0.012523 0.00369248 0)
(-0.013356 0.0022394 0)
(-0.0140526 0.000593901 0)
(-0.0145785 -0.00127138 0)
(-0.0148729 -0.0033855 0)
(-0.0148352 -0.00576698 0)
(-0.0143077 -0.00841538 0)
(-0.0130564 -0.011276 0)
(-0.0108122 -0.0141636 0)
(-0.00728972 -0.0165996 0)
(-0.00274231 -0.016404 0)
(-0.000869486 0.00965876 0)
(-0.00243453 0.0109413 0)
(-0.00415081 0.0110077 0)
(-0.00584974 0.0106865 0)
(-0.00746345 0.0101103 0)
(-0.00896639 0.00933194 0)
(-0.0103582 0.00838466 0)
(-0.0116462 0.00728982 0)
(-0.0128411 0.00605467 0)
(-0.0139527 0.0046698 0)
(-0.0149858 0.0031097 0)
(-0.0159348 0.00133537 0)
(-0.0167794 -0.000704387 0)
(-0.0174682 -0.00307233 0)
(-0.0178958 -0.0058432 0)
(-0.017865 -0.00909978 0)
(-0.0170275 -0.0128991 0)
(-0.0148787 -0.0171819 0)
(-0.0104801 -0.0215144 0)
(-0.00412966 -0.0221233 0)
(-0.000988181 0.0112984 0)
(-0.00275912 0.0127818 0)
(-0.00468401 0.0128296 0)
(-0.00656696 0.0124236 0)
(-0.00833385 0.0117352 0)
(-0.00996361 0.0108392 0)
(-0.0114678 0.00978218 0)
(-0.012868 0.0085926 0)
(-0.0141902 0.00727987 0)
(-0.0154611 0.00583245 0)
(-0.0167049 0.00421856 0)
(-0.0179397 0.0023869 0)
(-0.0191749 0.00026446 0)
(-0.0203932 -0.00224851 0)
(-0.0215182 -0.00530772 0)
(-0.0223478 -0.00913549 0)
(-0.0224325 -0.0140331 0)
(-0.0209285 -0.0203362 0)
(-0.0153007 -0.0280744 0)
(-0.00700081 -0.0305076 0)
(-0.00114941 0.0131795 0)
(-0.00318529 0.0148679 0)
(-0.00535337 0.0148643 0)
(-0.00743089 0.0143322 0)
(-0.00934086 0.0134949 0)
(-0.0110743 0.0124568 0)
(-0.0126616 0.011281 0)
(-0.0141434 0.0100044 0)
(-0.0155641 0.00863942 0)
(-0.01697 0.00717497 0)
(-0.0184094 0.00557787 0)
(-0.0199339 0.00379273 0)
(-0.0215969 0.00173476 0)
(-0.0234527 -0.000730092 0)
(-0.0255139 -0.00383773 0)
(-0.0276554 -0.00801295 0)
(-0.0294168 -0.0139848 0)
(-0.0295287 -0.022977 0)
(-0.0229349 -0.0365041 0)
(-0.0121358 -0.0432416 0)
(-0.0013827 0.0153812 0)
(-0.00376881 0.0172559 0)
(-0.00620764 0.0171336 0)
(-0.00847161 0.0164047 0)
(-0.0104897 0.0153627 0)
(-0.0122782 0.0141485 0)
(-0.0138958 0.0128416 0)
(-0.0154058 0.0114853 0)
(-0.0168714 0.010095 0)
(-0.0183576 0.00866291 0)
(-0.0199366 0.00716244 0)
(-0.0216967 0.00554939 0)
(-0.023753 0.0037505 0)
(-0.0262545 0.00162461 0)
(-0.0293706 -0.00111916 0)
(-0.0331889 -0.00510398 0)
(-0.0374522 -0.0116785 0)
(-0.0408012 -0.0239045 0)
(-0.0335793 -0.0469441 0)
(-0.0195118 -0.0632096 0)
(-0.00173782 0.0181012 0)
(-0.00458414 0.0200231 0)
(-0.00729678 0.0196438 0)
(-0.00969878 0.0186038 0)
(-0.0117477 0.0172805 0)
(-0.0135061 0.0158489 0)
(-0.0150708 0.014397 0)
(-0.0165291 0.0129683 0)
(-0.017959 0.0115776 0)
(-0.0194371 0.0102217 0)
(-0.0210501 0.00888939 0)
(-0.022913 0.00756679 0)
(-0.0251936 0.00622742 0)
(-0.0281384 0.00478337 0)
(-0.0320705 0.00295522 0)
(-0.0373616 -4.30376e-05 0)
(-0.0443106 -0.00650393 0)
(-0.0504371 -0.0228176 0)
(-0.0436643 -0.0606574 0)
(-0.0232216 -0.0941314 0)
(-0.00235362 0.0213163 0)
(-0.00577642 0.0231522 0)
(-0.00864942 0.0223116 0)
(-0.0110539 0.0208111 0)
(-0.0129855 0.0191225 0)
(-0.0145759 0.0174375 0)
(-0.0159673 0.0158361 0)
(-0.0172667 0.0143482 0)
(-0.0185563 0.0129791 0)
(-0.0199089 0.0117272 0)
(-0.021404 0.010601 0)
(-0.0231521 0.0096312 0)
(-0.0253263 0.00886782 0)
(-0.0281921 0.00832653 0)
(-0.0321115 0.00780984 0)
(-0.037633 0.00635167 0)
(-0.0451528 0.000226547 0)
(-0.0507457 -0.0225059 0)
(-0.0457332 -0.0781875 0)
(-0.0145556 -0.134898 0)
(-0.00311078 0.0260497 0)
(-0.00731059 0.0267879 0)
(-0.0101206 0.0250015 0)
(-0.0122639 0.0228119 0)
(-0.0138343 0.0206862 0)
(-0.0150393 0.0187663 0)
(-0.0160791 0.017053 0)
(-0.0170809 0.0155384 0)
(-0.0181057 0.0142087 0)
(-0.0191961 0.0130583 0)
(-0.0203942 0.0121125 0)
(-0.021761 0.011442 0)
(-0.0234002 0.0111693 0)
(-0.0254679 0.0114008 0)
(-0.0281498 0.0119902 0)
(-0.0317977 0.0116863 0)
(-0.0370371 0.00537054 0)
(-0.0366308 -0.0251469 0)
(-0.0399733 -0.091346 0)
(0.00180436 -0.17381 0)
(-0.00550575 0.0297014 0)
(-0.0100384 0.0294338 0)
(-0.0114703 0.0268301 0)
(-0.0125165 0.0241194 0)
(-0.0132354 0.021682 0)
(-0.0138244 0.0195749 0)
(-0.0143552 0.0178029 0)
(-0.0148794 0.0163138 0)
(-0.0154376 0.0150493 0)
(-0.016038 0.0139827 0)
(-0.0166715 0.0131404 0)
(-0.0173192 0.0126079 0)
(-0.017968 0.0125499 0)
(-0.0186043 0.0130932 0)
(-0.0191721 0.0140046 0)
(-0.0193754 0.0135204 0)
(-0.0214387 0.00756888 0)
(-0.00840168 -0.0290136 0)
(-0.0334891 -0.0975962 0)
(0.0148983 -0.196769 0)
(-0.00719163 0.0489084 0)
(-0.0105876 0.0386405 0)
(-0.00968536 0.031907 0)
(-0.00906933 0.0271922 0)
(-0.00846028 0.023956 0)
(-0.00770151 0.0213058 0)
(-0.00691089 0.0191632 0)
(-0.00614888 0.0174269 0)
(-0.00544515 0.015985 0)
(-0.00477732 0.014759 0)
(-0.00409301 0.0137481 0)
(-0.00328436 0.0129899 0)
(-0.00226555 0.0126572 0)
(-0.00078122 0.0127303 0)
(0.000781055 0.0130357 0)
(0.00516785 0.0115736 0)
(0.00289342 0.0030642 0)
(0.0258947 -0.0251963 0)
(-0.0218583 -0.0969272 0)
(0.0372019 -0.19703 0)
(-0.00339859 0.0250948 0)
(-0.00774844 0.0128774 0)
(0.00065229 0.0125305 0)
(0.00692289 0.0136002 0)
(0.0137765 0.0134245 0)
(0.0201631 0.0127339 0)
(0.0260566 0.0120217 0)
(0.0314756 0.0114002 0)
(0.0364645 0.010817 0)
(0.0411218 0.0102194 0)
(0.0454782 0.00964429 0)
(0.0497788 0.00912254 0)
(0.0538371 0.00880972 0)
(0.0584834 0.00852659 0)
(0.0623927 0.00805281 0)
(0.0684712 0.00592295 0)
(0.0705071 -0.00331471 0)
(0.080371 -0.0251557 0)
(0.0383895 -0.0725355 0)
(0.0793298 -0.147631 0)
(0.0523125 0.0999517 0)
(0.0606798 0.0608994 0)
(0.091274 0.0382754 0)
(0.111595 0.0276166 0)
(0.126803 0.0215683 0)
(0.139882 0.0176203 0)
(0.151833 0.0148735 0)
(0.162878 0.0129009 0)
(0.173081 0.0114373 0)
(0.182577 0.0101932 0)
(0.191227 0.00917112 0)
(0.199458 0.00796494 0)
(0.206439 0.00720074 0)
(0.213634 0.00586808 0)
(0.218475 0.00534429 0)
(0.223933 0.00365994 0)
(0.223681 4.66829e-05 0)
(0.216265 -0.00576532 0)
(0.175071 -0.0202617 0)
(0.167466 -0.119937 0)
)
;

boundaryField
{
    movingWall
    {
        type            fixedValue;
        value           uniform (1 0 0);
    }
    fixedWalls
    {
        type            noSlip;
    }
    frontAndBack
    {
        type            empty;
    }
}


// ************************************************************************* //
