/*--------------------------------*- C++ -*----------------------------------*\
| =========                 |                                                 |
| \\      /  F ield         | OpenFOAM: The Open Source CFD Toolbox           |
|  \\    /   O peration     | Version:  4.1                                   |
|   \\  /    A nd           | Web:      www.OpenFOAM.org                      |
|    \\/     M anipulation  |                                                 |
\*---------------------------------------------------------------------------*/
FoamFile
{
    version     2.0;
    format      ascii;
    class       volScalarField;
    location    "5";
    object      epsilon;
}
// * * * * * * * * * * * * * * * * * * * * * * * * * * * * * * * * * * * * * //

dimensions      [0 2 -3 0 0 0 0];

internalField   nonuniform List<scalar> 
400
(
0.000176726
0.000537395
0.00193389
0.00450729
0.0073161
0.00949496
0.0109426
0.0116765
0.0119711
0.0120174
0.0115941
0.0109686
0.0101418
0.00926853
0.00843853
0.00765026
0.00701716
0.0063644
0.00498921
0.00390982
0.000407191
0.00109425
0.00257379
0.00401095
0.00463141
0.00469508
0.00419046
0.00364181
0.0030735
0.0026668
0.00240517
0.00231618
0.00239927
0.00273244
0.00319114
0.00394928
0.00513086
0.00673325
0.00865228
0.00952389
0.000987096
0.00170362
0.00247664
0.00277027
0.00243772
0.0020116
0.001569
0.00131619
0.00116211
0.00109529
0.00107585
0.0011098
0.00123427
0.00144189
0.00183408
0.0025301
0.00378783
0.00602888
0.0100633
0.0152358
0.00172385
0.0018096
0.0020789
0.00182806
0.00135987
0.0010488
0.000831444
0.00072698
0.000646014
0.000593357
0.000567478
0.000559225
0.000593105
0.0006996
0.000923477
0.00139395
0.00243399
0.00473075
0.0101802
0.0192375
0.0023002
0.00173005
0.00164994
0.00121739
0.000847218
0.000654006
0.00052552
0.000449203
0.000377328
0.00033113
0.000306124
0.000297446
0.000311176
0.000377859
0.000520694
0.000856149
0.00168482
0.00375335
0.00957825
0.0223667
0.00280453
0.00155785
0.0012856
0.000852429
0.000584358
0.000451764
0.000356021
0.000290584
0.000235699
0.000201986
0.000185734
0.000180427
0.000190998
0.000233747
0.000327406
0.000559929
0.00121876
0.00312821
0.00913719
0.0248418
0.00336908
0.00137094
0.00101608
0.000638109
0.000439611
0.0003382
0.000259769
0.000206816
0.000167995
0.000144124
0.000132544
0.000128596
0.000135288
0.000163858
0.00022766
0.000386648
0.000890795
0.00257864
0.00871137
0.0269598
0.0039684
0.00123039
0.000823127
0.000511897
0.0003584
0.000273629
0.000206753
0.000163841
0.000134762
0.000115238
0.000104076
9.9803e-05
0.000102323
0.000122194
0.000169788
0.000287273
0.000693389
0.00222494
0.0084718
0.0288239
0.0045578
0.00111327
0.000689661
0.000437038
0.000313218
0.000237619
0.00017843
0.000141571
0.000117294
9.96207e-05
8.76428e-05
8.26231e-05
8.37652e-05
9.89712e-05
0.000136923
0.000229567
0.000538916
0.00190341
0.00837243
0.0306182
0.00522379
0.00109529
0.000605139
0.000392028
0.000288855
0.000219462
0.000164707
0.000130566
0.00010842
9.18963e-05
7.96366e-05
7.38735e-05
7.55605e-05
8.82723e-05
0.000120611
0.000202369
0.000458185
0.00171552
0.00835175
0.0324169
0.00570623
0.0011592
0.000546501
0.000364961
0.000276723
0.000210989
0.000159633
0.000126707
0.00010555
8.99895e-05
7.80299e-05
7.15068e-05
7.33052e-05
8.45534e-05
0.000113579
0.000190127
0.00040941
0.00158055
0.0084968
0.0343829
0.00609811
0.00133612
0.000549641
0.000350834
0.000270957
0.000210802
0.000161225
0.000128388
0.000107321
9.2233e-05
8.07429e-05
7.37794e-05
7.49548e-05
8.44296e-05
0.000111803
0.00018629
0.000390228
0.00152556
0.00860688
0.036625
0.00607753
0.00160762
0.000581387
0.000354225
0.000272099
0.000213407
0.000165937
0.000133309
0.000112293
9.78887e-05
8.71184e-05
8.01722e-05
8.13025e-05
9.03486e-05
0.0001163
0.000188438
0.000384101
0.00151635
0.00891069
0.039371
0.00588368
0.0019045
0.000663389
0.000371953
0.000278175
0.000219793
0.000174885
0.000142715
0.000121621
0.000107682
9.76152e-05
9.10828e-05
9.23359e-05
0.00010167
0.000128164
0.000204031
0.000401855
0.00160752
0.00979042
0.0428414
0.00533304
0.00214227
0.000798581
0.000416952
0.000296021
0.000232564
0.000186994
0.000155296
0.000134394
0.00012124
0.000112025
0.000107487
0.000109457
0.000120376
0.000149782
0.000235285
0.000455614
0.00183321
0.0114111
0.0475557
0.00456175
0.00216246
0.000988771
0.000523637
0.000342348
0.00026066
0.000209154
0.000174815
0.000152681
0.000140341
0.000132087
0.000132169
0.000136293
0.000152762
0.000194032
0.000306906
0.000597086
0.00238763
0.0139847
0.0541429
0.00318016
0.00195807
0.00105464
0.000625003
0.000427855
0.000324648
0.000261112
0.000220932
0.000196514
0.000185667
0.000186073
0.000192918
0.000209215
0.000251037
0.000337253
0.000537138
0.0010428
0.00384852
0.0188031
0.0638468
0.00267405
0.00172007
0.00126389
0.000930835
0.000746126
0.000640039
0.000578793
0.000558073
0.000562943
0.000588996
0.000637435
0.000724565
0.000820925
0.000962528
0.0011822
0.0017557
0.00321768
0.0090776
0.0302941
0.0797326
0.0035642
0.00516417
0.00656926
0.00699363
0.00719416
0.00740715
0.00765618
0.00805926
0.00845469
0.00904871
0.00956058
0.0103951
0.0110395
0.0123317
0.0133575
0.0160432
0.0218889
0.0367342
0.070059
0.111914
0.0440324
0.0882621
0.122759
0.137552
0.142801
0.144766
0.145485
0.146421
0.146916
0.147925
0.148558
0.149882
0.150896
0.153018
0.155206
0.158619
0.162059
0.16645
0.181361
0.155448
)
;

boundaryField
{
    movingWall
    {
        Cmu             0.09;
        kappa           0.41;
        E               9.8;
        type            epsilonWallFunction;
        value           nonuniform List<scalar> 
20
(
0.0440324
0.0882621
0.122759
0.137552
0.142801
0.144766
0.145485
0.146421
0.146916
0.147925
0.148558
0.149882
0.150896
0.153018
0.155206
0.158619
0.162059
0.16645
0.181361
0.155448
)
;
    }
    fixedWalls
    {
        Cmu             0.09;
        kappa           0.41;
        E               9.8;
        type            epsilonWallFunction;
        value           nonuniform List<scalar> 
60
(
0.000176726
0.000407191
0.000987096
0.00172385
0.0023002
0.00280453
0.00336908
0.0039684
0.0045578
0.00522379
0.00570623
0.00609811
0.00607753
0.00588368
0.00533304
0.00456175
0.00318016
0.00267405
0.0035642
0.0440324
0.00390982
0.00952389
0.0152358
0.0192375
0.0223667
0.0248418
0.0269598
0.0288239
0.0306182
0.0324169
0.0343829
0.036625
0.039371
0.0428414
0.0475557
0.0541429
0.0638468
0.0797326
0.111914
0.155448
0.000176726
0.000537395
0.00193389
0.00450729
0.0073161
0.00949496
0.0109426
0.0116765
0.0119711
0.0120174
0.0115941
0.0109686
0.0101418
0.00926853
0.00843853
0.00765026
0.00701716
0.0063644
0.00498921
0.00390982
)
;
    }
    frontAndBack
    {
        type            empty;
    }
}


// ************************************************************************* //
