/*--------------------------------*- C++ -*----------------------------------*\
| =========                 |                                                 |
| \\      /  F ield         | OpenFOAM: The Open Source CFD Toolbox           |
|  \\    /   O peration     | Version:  4.1                                   |
|   \\  /    A nd           | Web:      www.OpenFOAM.org                      |
|    \\/     M anipulation  |                                                 |
\*---------------------------------------------------------------------------*/
FoamFile
{
    version     2.0;
    format      ascii;
    class       volScalarField;
    location    "5";
    object      k;
}
// * * * * * * * * * * * * * * * * * * * * * * * * * * * * * * * * * * * * * //

dimensions      [0 2 -2 0 0 0 0];

internalField   nonuniform List<scalar> 
400
(
0.000106835
0.000224377
0.000526855
0.000925913
0.00127853
0.00152091
0.00167148
0.00174521
0.00177429
0.00177878
0.00173653
0.00167346
0.00158814
0.00149565
0.00140494
0.00131604
0.00124241
0.00116414
0.000989884
0.000841368
0.000186403
0.000411888
0.000728369
0.000935754
0.00102672
0.00101178
0.000922925
0.000858719
0.00079421
0.000762904
0.000749055
0.00074896
0.000801778
0.000863071
0.000976138
0.0011058
0.00128103
0.00145217
0.00156713
0.00152298
0.000336364
0.000621312
0.000757496
0.000807224
0.00068385
0.000622915
0.000550318
0.000517016
0.000493995
0.000483087
0.000478589
0.000478225
0.000501148
0.000539947
0.000621366
0.000755437
0.000974119
0.00129984
0.00174159
0.00208294
0.000487763
0.000675437
0.000708373
0.000616367
0.000505478
0.000456487
0.000414108
0.00039387
0.000366615
0.000343414
0.000325829
0.000318521
0.00031758
0.000340824
0.00039456
0.000498008
0.000707943
0.00107209
0.00174162
0.00243315
0.000591162
0.000664381
0.000621773
0.00048485
0.000409336
0.000372955
0.00034143
0.000316604
0.000286503
0.000264222
0.000251521
0.00024728
0.000248241
0.000267735
0.000304755
0.000378241
0.000550711
0.000905486
0.0016453
0.0026902
0.000674625
0.000636946
0.000534516
0.000406816
0.000350031
0.000320008
0.000291338
0.000266115
0.000242481
0.000226745
0.000220265
0.000218867
0.000225796
0.000246267
0.000276204
0.000328295
0.000462875
0.000800558
0.00159854
0.00288511
0.000762315
0.000592156
0.000467202
0.000357435
0.000311806
0.000286313
0.000260817
0.000240102
0.000223536
0.000212103
0.000207891
0.000207645
0.000217123
0.000238282
0.00026705
0.00030917
0.000410721
0.000706698
0.00155484
0.00304679
0.0008502
0.000540071
0.000415196
0.000325665
0.000289133
0.000267235
0.000245263
0.000229006
0.000216294
0.000204928
0.000199879
0.000199342
0.000208685
0.00023034
0.000262012
0.00030179
0.000384628
0.000648027
0.00153618
0.00318564
0.000932414
0.000509075
0.000380619
0.000304943
0.000276105
0.000257797
0.000238926
0.00022526
0.00021369
0.00020128
0.000193137
0.000191114
0.000198679
0.00021941
0.000253816
0.000298945
0.000363618
0.000590158
0.00153069
0.00331649
0.0010211
0.000478133
0.000353207
0.00029222
0.000271104
0.000255117
0.000238145
0.000225498
0.000214205
0.000201555
0.000190664
0.000186947
0.000193651
0.00021303
0.000247561
0.000298544
0.000351944
0.000555607
0.00153803
0.00344515
0.00108302
0.000480028
0.000337617
0.000282952
0.000267383
0.00025433
0.000238903
0.000226727
0.00021608
0.000204179
0.000193051
0.00018765
0.000192712
0.000210843
0.000244979
0.000301974
0.000340493
0.000520278
0.00156192
0.00358311
0.00113198
0.000493181
0.000329175
0.000277977
0.000266001
0.000254436
0.000240504
0.000229091
0.00021962
0.000209482
0.000199074
0.000193381
0.000197149
0.000212581
0.000244647
0.000305932
0.000334861
0.000501297
0.00157768
0.00373726
0.00112941
0.00052068
0.000331815
0.000274041
0.000263538
0.000253982
0.000241677
0.000231489
0.000223702
0.00021614
0.000207968
0.000202893
0.000205979
0.000219752
0.000249042
0.000308401
0.000326908
0.000488489
0.00161103
0.00392184
0.00110521
0.000561959
0.00034176
0.000275779
0.000259644
0.000252021
0.000241527
0.000232824
0.000227118
0.000222619
0.00021746
0.000214538
0.000217395
0.000229821
0.000255119
0.000309028
0.000318503
0.000483276
0.00169503
0.00414906
0.00103505
0.000598179
0.000359895
0.000282226
0.000260704
0.000250122
0.000240298
0.000232711
0.000228237
0.000226774
0.000225359
0.000226177
0.000229939
0.000242354
0.000260804
0.000304231
0.000306229
0.000488754
0.00184912
0.00444811
0.000932563
0.000614409
0.000396415
0.000299414
0.000267563
0.000253334
0.000242148
0.000233972
0.000230199
0.000230512
0.000231706
0.000234721
0.000238997
0.000250159
0.00026241
0.00028772
0.00029968
0.000541491
0.00208987
0.00484989
0.000733131
0.000587253
0.000413952
0.000322533
0.000285197
0.000265782
0.00025108
0.000240053
0.000233153
0.000232828
0.000233681
0.0002368
0.000241428
0.000252189
0.000262653
0.000279754
0.000320011
0.000690468
0.00250362
0.00541327
0.000653018
0.000548286
0.000454545
0.000378316
0.000337753
0.000312144
0.000292195
0.000278227
0.000266299
0.000265267
0.000266688
0.000271022
0.00027973
0.00029197
0.000315439
0.000379527
0.000550589
0.00121642
0.00338371
0.00627751
0.000790839
0.000843702
0.000924271
0.000921783
0.000918751
0.000924359
0.000940023
0.0009754
0.00101251
0.00107798
0.00113403
0.00123205
0.00130767
0.0014626
0.00158507
0.00184586
0.00232098
0.0034379
0.00588526
0.00786954
0.00422563
0.00671777
0.00837015
0.00902958
0.00925749
0.00934196
0.00937266
0.00941275
0.009434
0.00947726
0.00950437
0.00956095
0.00960411
0.0096941
0.00978635
0.00992931
0.0100724
0.0102535
0.0108571
0.00979666
)
;

boundaryField
{
    movingWall
    {
        type            kqRWallFunction;
        value           nonuniform List<scalar> 
20
(
0.00422563
0.00671777
0.00837015
0.00902958
0.00925749
0.00934196
0.00937266
0.00941275
0.009434
0.00947726
0.00950437
0.00956095
0.00960411
0.0096941
0.00978635
0.00992931
0.0100724
0.0102535
0.0108571
0.00979666
)
;
    }
    fixedWalls
    {
        type            kqRWallFunction;
        value           nonuniform List<scalar> 
60
(
0.000106835
0.000186403
0.000336364
0.000487763
0.000591162
0.000674625
0.000762315
0.0008502
0.000932414
0.0010211
0.00108302
0.00113198
0.00112941
0.00110521
0.00103505
0.000932563
0.000733131
0.000653018
0.000790839
0.00422563
0.000841368
0.00152298
0.00208294
0.00243315
0.0026902
0.00288511
0.00304679
0.00318564
0.00331649
0.00344515
0.00358311
0.00373726
0.00392184
0.00414906
0.00444811
0.00484989
0.00541327
0.00627751
0.00786954
0.00979666
0.000106835
0.000224377
0.000526855
0.000925913
0.00127853
0.00152091
0.00167148
0.00174521
0.00177429
0.00177878
0.00173653
0.00167346
0.00158814
0.00149565
0.00140494
0.00131604
0.00124241
0.00116414
0.000989884
0.000841368
)
;
    }
    frontAndBack
    {
        type            empty;
    }
}


// ************************************************************************* //
