/*--------------------------------*- C++ -*----------------------------------*\
| =========                 |                                                 |
| \\      /  F ield         | OpenFOAM: The Open Source CFD Toolbox           |
|  \\    /   O peration     | Version:  4.1                                   |
|   \\  /    A nd           | Web:      www.OpenFOAM.org                      |
|    \\/     M anipulation  |                                                 |
\*---------------------------------------------------------------------------*/
FoamFile
{
    version     2.0;
    format      ascii;
    class       volScalarField;
    location    "5";
    object      nut;
}
// * * * * * * * * * * * * * * * * * * * * * * * * * * * * * * * * * * * * * //

dimensions      [0 2 -1 0 0 0 0];

internalField   nonuniform List<scalar> 
400
(
5.81262e-06
8.43155e-06
1.29179e-05
1.71186e-05
2.01088e-05
2.19258e-05
2.29787e-05
2.34759e-05
2.36678e-05
2.3696e-05
2.34083e-05
2.29785e-05
2.23822e-05
2.17217e-05
2.10518e-05
2.03755e-05
1.97974e-05
1.91645e-05
1.76758e-05
1.62951e-05
7.6798e-06
1.39535e-05
1.85512e-05
1.9648e-05
2.04849e-05
1.96231e-05
1.82942e-05
1.82233e-05
1.84705e-05
1.96423e-05
2.09954e-05
2.17965e-05
2.41141e-05
2.45349e-05
2.68732e-05
2.78661e-05
2.87855e-05
2.81871e-05
2.55459e-05
2.19187e-05
1.03158e-05
2.03934e-05
2.08516e-05
2.11694e-05
1.72655e-05
1.73603e-05
1.73719e-05
1.82781e-05
1.88991e-05
1.91763e-05
1.91608e-05
1.85464e-05
1.83132e-05
1.81975e-05
1.89461e-05
2.03002e-05
2.25463e-05
2.52225e-05
2.71266e-05
2.56291e-05
1.24211e-05
2.26897e-05
2.17237e-05
1.87038e-05
1.69102e-05
1.78816e-05
1.85625e-05
1.92055e-05
1.8725e-05
1.7888e-05
1.68373e-05
1.6328e-05
1.53044e-05
1.49435e-05
1.5172e-05
1.60128e-05
1.85319e-05
2.18661e-05
2.68158e-05
2.76969e-05
1.36738e-05
2.29625e-05
2.10881e-05
1.7379e-05
1.77994e-05
1.91414e-05
1.99644e-05
2.00833e-05
1.95785e-05
1.8975e-05
1.85992e-05
1.85018e-05
1.78231e-05
1.70736e-05
1.60532e-05
1.50394e-05
1.62008e-05
1.96602e-05
2.54358e-05
2.91214e-05
1.46052e-05
2.3438e-05
2.00014e-05
1.74735e-05
1.88702e-05
2.0401e-05
2.14567e-05
2.19335e-05
2.24512e-05
2.29085e-05
2.35095e-05
2.38947e-05
2.4024e-05
2.33511e-05
2.09707e-05
1.73236e-05
1.58216e-05
1.84388e-05
2.51695e-05
3.01566e-05
1.55239e-05
2.30195e-05
1.93342e-05
1.80195e-05
1.99042e-05
2.18148e-05
2.35682e-05
2.50872e-05
2.67696e-05
2.80932e-05
2.93463e-05
3.01756e-05
3.13613e-05
3.1186e-05
2.81929e-05
2.22495e-05
1.70435e-05
1.74309e-05
2.49764e-05
3.09893e-05
1.63934e-05
2.13355e-05
1.88487e-05
1.86467e-05
2.09928e-05
2.34891e-05
2.61852e-05
2.8808e-05
3.12438e-05
3.27982e-05
3.45485e-05
3.58342e-05
3.83044e-05
3.90779e-05
3.63899e-05
2.85337e-05
1.9202e-05
1.69867e-05
2.507e-05
3.16871e-05
1.71674e-05
2.09509e-05
1.89055e-05
1.91496e-05
2.19051e-05
2.51719e-05
2.87941e-05
3.22579e-05
3.50378e-05
3.6601e-05
3.83051e-05
3.97857e-05
4.24116e-05
4.37772e-05
4.23454e-05
3.50361e-05
2.20807e-05
1.64682e-05
2.51864e-05
3.23312e-05
1.79635e-05
1.87851e-05
1.85544e-05
1.96041e-05
2.29e-05
2.66908e-05
3.09895e-05
3.50508e-05
3.80884e-05
3.97861e-05
4.10833e-05
4.25786e-05
4.46672e-05
4.62702e-05
4.57319e-05
3.96384e-05
2.43304e-05
1.6195e-05
2.54916e-05
3.29525e-05
1.84997e-05
1.78903e-05
1.87715e-05
1.97435e-05
2.32522e-05
2.75915e-05
3.21782e-05
3.6513e-05
3.9812e-05
4.16941e-05
4.29858e-05
4.43191e-05
4.55956e-05
4.73186e-05
4.75558e-05
4.31658e-05
2.54859e-05
1.54136e-05
2.58408e-05
3.36062e-05
1.89115e-05
1.63836e-05
1.77426e-05
1.98225e-05
2.35022e-05
2.76392e-05
3.22891e-05
3.67903e-05
4.04485e-05
4.28202e-05
4.4174e-05
4.56179e-05
4.66692e-05
4.81721e-05
4.81802e-05
4.5217e-05
2.58615e-05
1.48253e-05
2.60277e-05
3.43219e-05
1.88894e-05
1.51775e-05
1.70439e-05
1.90808e-05
2.29722e-05
2.72044e-05
3.16789e-05
3.6178e-05
4.01077e-05
4.29516e-05
4.4681e-05
4.62119e-05
4.69661e-05
4.81045e-05
4.79964e-05
4.54262e-05
2.50408e-05
1.41629e-05
2.62142e-05
3.51597e-05
1.86847e-05
1.49235e-05
1.58459e-05
1.84025e-05
2.18112e-05
2.60078e-05
3.00208e-05
3.41846e-05
3.81712e-05
4.14212e-05
4.35996e-05
4.54793e-05
4.60651e-05
4.67549e-05
4.57048e-05
4.21252e-05
2.27195e-05
1.3076e-05
2.64117e-05
3.61642e-05
1.80798e-05
1.50324e-05
1.45974e-05
1.7193e-05
2.06641e-05
2.42105e-05
2.77918e-05
3.13845e-05
3.48849e-05
3.81752e-05
4.08017e-05
4.28335e-05
4.34735e-05
4.3914e-05
4.08705e-05
3.54043e-05
1.85241e-05
1.17277e-05
2.69679e-05
3.74447e-05
1.7158e-05
1.57112e-05
1.43036e-05
1.54084e-05
1.88203e-05
2.21592e-05
2.52313e-05
2.81834e-05
3.12366e-05
3.40756e-05
3.65811e-05
3.7516e-05
3.77184e-05
3.68689e-05
3.19396e-05
2.42759e-05
1.3537e-05
1.10525e-05
2.81077e-05
3.9099e-05
1.5211e-05
1.58513e-05
1.4623e-05
1.49799e-05
1.71094e-05
1.9583e-05
2.1729e-05
2.34747e-05
2.48962e-05
2.6277e-05
2.64121e-05
2.61597e-05
2.50741e-05
2.28012e-05
1.841e-05
1.31132e-05
8.83835e-06
1.1149e-05
3.00018e-05
4.1307e-05
1.43524e-05
1.57294e-05
1.47125e-05
1.38382e-05
1.37603e-05
1.37008e-05
1.32759e-05
1.24839e-05
1.13375e-05
1.07522e-05
1.00419e-05
9.12379e-06
8.5786e-06
7.97088e-06
7.57504e-06
7.38375e-06
8.47921e-06
1.46703e-05
3.40151e-05
4.44817e-05
1.57927e-05
1.24057e-05
1.17037e-05
1.09345e-05
1.05599e-05
1.03818e-05
1.03874e-05
1.06246e-05
1.0913e-05
1.15579e-05
1.21061e-05
1.31423e-05
1.39408e-05
1.56123e-05
1.69283e-05
1.91138e-05
2.21495e-05
2.89572e-05
4.44948e-05
4.9803e-05
3.64968e-05
4.6017e-05
5.13637e-05
5.33471e-05
5.40128e-05
5.42566e-05
5.43439e-05
5.44594e-05
5.45212e-05
5.46471e-05
5.47261e-05
5.48904e-05
5.50149e-05
5.52732e-05
5.55361e-05
5.59403e-05
5.6342e-05
5.68465e-05
5.84962e-05
5.55666e-05
)
;

boundaryField
{
    movingWall
    {
        type            nutkWallFunction;
        Cmu             0.09;
        kappa           0.41;
        E               9.8;
        value           nonuniform List<scalar> 
20
(
0
0
6.77698e-07
1.0036e-06
1.11303e-06
1.1532e-06
1.16775e-06
1.1867e-06
1.19673e-06
1.2171e-06
1.22984e-06
1.25636e-06
1.27653e-06
1.31842e-06
1.36113e-06
1.42686e-06
1.49209e-06
1.57393e-06
1.84079e-06
1.36589e-06
)
;
    }
    fixedWalls
    {
        type            nutkWallFunction;
        Cmu             0.09;
        kappa           0.41;
        E               9.8;
        value           nonuniform List<scalar> 
60
(
0
0
0
0
0
0
0
0
0
0
0
0
0
0
0
0
0
0
0
0
0
0
0
0
0
0
0
0
0
0
0
0
0
0
0
0
0
0
4.20263e-07
1.36589e-06
0
0
0
0
0
0
0
0
0
0
0
0
0
0
0
0
0
0
0
0
)
;
    }
    frontAndBack
    {
        type            empty;
    }
}


// ************************************************************************* //
