/*--------------------------------*- C++ -*----------------------------------*\
| =========                 |                                                 |
| \\      /  F ield         | OpenFOAM: The Open Source CFD Toolbox           |
|  \\    /   O peration     | Version:  4.1                                   |
|   \\  /    A nd           | Web:      www.OpenFOAM.org                      |
|    \\/     M anipulation  |                                                 |
\*---------------------------------------------------------------------------*/
FoamFile
{
    version     2.0;
    format      ascii;
    class       volScalarField;
    location    "5";
    object      p;
}
// * * * * * * * * * * * * * * * * * * * * * * * * * * * * * * * * * * * * * //

dimensions      [0 2 -2 0 0 0 0];

internalField   nonuniform List<scalar> 
400
(
6.3484e-08
-8.01258e-05
-0.000187083
-0.000510945
-0.0013486
-0.0027145
-0.0043874
-0.00605505
-0.00746149
-0.00847403
-0.00898644
-0.00890396
-0.00812937
-0.00657453
-0.00417678
-0.00101293
0.00263715
0.00608721
0.00836636
0.00903583
0.00011527
-1.27347e-06
-0.000252244
-0.000861317
-0.00197197
-0.00351364
-0.00522094
-0.00683327
-0.00820193
-0.00918202
-0.0096799
-0.00963585
-0.00900392
-0.00766409
-0.00555151
-0.00267101
0.000803621
0.00433004
0.0069322
0.00799046
0.000123513
-0.000159015
-0.000730543
-0.00176476
-0.00326961
-0.00503015
-0.00676637
-0.00833574
-0.00964299
-0.0105365
-0.0109788
-0.0109439
-0.0104065
-0.00931511
-0.00759673
-0.00519859
-0.00214663
0.00128729
0.00420925
0.00568173
-0.00027681
-0.000748593
-0.0016946
-0.00316808
-0.00501441
-0.00691384
-0.00864277
-0.01007
-0.011107
-0.0117773
-0.0121029
-0.0120671
-0.0116364
-0.0107826
-0.00946725
-0.00762798
-0.00519024
-0.00216741
0.000764055
0.00238328
-0.0012134
-0.00184625
-0.00307596
-0.00484829
-0.00683524
-0.00867791
-0.0102068
-0.0113749
-0.0121913
-0.0127078
-0.0129459
-0.0129002
-0.0125534
-0.0118912
-0.0108994
-0.00954092
-0.00772125
-0.00531836
-0.00267828
-0.00111634
-0.00260534
-0.00330674
-0.0046535
-0.00650309
-0.00842246
-0.0100691
-0.0113479
-0.012282
-0.012936
-0.0133575
-0.0135587
-0.013534
-0.0132658
-0.0127463
-0.0119784
-0.0109597
-0.00965228
-0.00786072
-0.00576151
-0.00429905
-0.00414004
-0.00484479
-0.00617487
-0.00792934
-0.00966567
-0.0110787
-0.0121361
-0.012905
-0.0134579
-0.0138329
-0.0140331
-0.0140439
-0.013845
-0.0134317
-0.0128176
-0.0120203
-0.0110623
-0.00974616
-0.00820439
-0.00691267
-0.00553158
-0.00618687
-0.00742851
-0.00902268
-0.0105528
-0.0117611
-0.012656
-0.0133187
-0.0138128
-0.0141655
-0.0143743
-0.014419
-0.0142752
-0.0139383
-0.0134291
-0.0127673
-0.0120426
-0.0110479
-0.00997305
-0.0088624
-0.00658032
-0.00717953
-0.0083112
-0.00975371
-0.01111
-0.0121672
-0.0129575
-0.0135573
-0.0140185
-0.0143596
-0.0145753
-0.0146425
-0.0145346
-0.0142464
-0.0138042
-0.013208
-0.0126562
-0.0118292
-0.0110898
-0.0101654
-0.00722822
-0.00775188
-0.0087884
-0.010122
-0.0113586
-0.0123253
-0.0130627
-0.0136316
-0.0140761
-0.0144095
-0.0146256
-0.0147008
-0.014609
-0.0143432
-0.0139379
-0.013348
-0.0129349
-0.0121238
-0.0116933
-0.0108496
-0.00745056
-0.0079337
-0.00888691
-0.010144
-0.0113103
-0.0122527
-0.0129814
-0.0135453
-0.0139843
-0.0143117
-0.0145206
-0.014589
-0.0144942
-0.0142284
-0.013823
-0.013228
-0.0128723
-0.0119869
-0.011863
-0.0109471
-0.00726891
-0.00773358
-0.00863495
-0.00983258
-0.0109984
-0.0119586
-0.0127111
-0.0132933
-0.013741
-0.0140672
-0.0142656
-0.0143163
-0.0142017
-0.0139127
-0.0134795
-0.012871
-0.0124632
-0.0115163
-0.0116356
-0.0104748
-0.00679333
-0.00723716
-0.00809655
-0.00923203
-0.0104313
-0.011443
-0.0122495
-0.0128755
-0.0133501
-0.0136845
-0.013874
-0.013901
-0.0137531
-0.0134199
-0.0129369
-0.0122799
-0.011761
-0.010793
-0.0110062
-0.00952518
-0.00613963
-0.00652192
-0.00731581
-0.00838805
-0.0096007
-0.0106902
-0.0115862
-0.0122891
-0.0128159
-0.013175
-0.0133639
-0.0133669
-0.0131763
-0.012781
-0.0122232
-0.0114768
-0.0108226
-0.00984261
-0.0100612
-0.00829001
-0.00545682
-0.00571739
-0.00637387
-0.00735039
-0.00854008
-0.0097077
-0.0107207
-0.0115354
-0.0121459
-0.0125527
-0.012756
-0.012743
-0.012506
-0.0120356
-0.0113795
-0.0105138
-0.00971534
-0.00868471
-0.0088792
-0.00688694
-0.00484519
-0.00488254
-0.00532716
-0.00614688
-0.00727273
-0.00850583
-0.00965726
-0.0106192
-0.0113498
-0.0118339
-0.0120722
-0.0120523
-0.0117856
-0.0112437
-0.0104768
-0.00947997
-0.00850544
-0.00731567
-0.00743464
-0.0049993
-0.00441348
-0.00417773
-0.00431058
-0.00488413
-0.00588821
-0.00715606
-0.00844761
-0.00957983
-0.0104673
-0.011068
-0.0113824
-0.0113963
-0.0111152
-0.0105101
-0.0096295
-0.00847212
-0.00722341
-0.00566617
-0.00525862
-0.00098384
-0.00401549
-0.00350059
-0.00334165
-0.0036292
-0.00449524
-0.00578634
-0.00719984
-0.00848168
-0.00952299
-0.0102572
-0.0106677
-0.0107334
-0.0104585
-0.00983252
-0.0088591
-0.00749371
-0.00578299
-0.00337663
-0.000989939
0.00838621
-0.00538665
-0.00376667
-0.00291772
-0.00277629
-0.00349416
-0.00479922
-0.0063075
-0.00772044
-0.00888661
-0.00973488
-0.010234
-0.0103788
-0.0101503
-0.00952925
-0.00838759
-0.00659673
-0.004
0.000218367
0.00651318
0.0238055
-0.000764671
0.000730347
-0.000134125
-0.00118348
-0.00245068
-0.00398261
-0.00562727
-0.00716986
-0.00843355
-0.00934577
-0.00986906
-0.00999751
-0.00969219
-0.00890308
-0.00751591
-0.00533012
-0.00148113
0.00526517
0.0162535
0.0352835
)
;

boundaryField
{
    movingWall
    {
        type            zeroGradient;
    }
    fixedWalls
    {
        type            zeroGradient;
    }
    frontAndBack
    {
        type            empty;
    }
}


// ************************************************************************* //
