/*--------------------------------*- C++ -*----------------------------------*\
| =========                 |                                                 |
| \\      /  F ield         | OpenFOAM: The Open Source CFD Toolbox           |
|  \\    /   O peration     | Version:  4.1                                   |
|   \\  /    A nd           | Web:      www.OpenFOAM.org                      |
|    \\/     M anipulation  |                                                 |
\*---------------------------------------------------------------------------*/
FoamFile
{
    version     2.0;
    format      ascii;
    class       surfaceScalarField;
    location    "5";
    object      phi;
}
// * * * * * * * * * * * * * * * * * * * * * * * * * * * * * * * * * * * * * //

dimensions      [0 3 -1 0 0 0 0];

internalField   nonuniform List<scalar> 
760
(
-7.57049e-09
7.5643e-09
-3.6077e-07
3.53199e-07
-1.14639e-06
7.85617e-07
-2.30292e-06
1.15654e-06
-3.59173e-06
1.2888e-06
-4.84957e-06
1.25784e-06
-5.96002e-06
1.11046e-06
-6.87798e-06
9.17958e-07
-7.56489e-06
6.86905e-07
-8.06323e-06
4.98348e-07
-8.35618e-06
2.92948e-07
-8.46226e-06
1.06079e-07
-8.34985e-06
-1.12411e-07
-8.01363e-06
-3.36216e-07
-7.3938e-06
-6.19834e-07
-6.41884e-06
-9.7496e-07
-5.03544e-06
-1.3834e-06
-3.26499e-06
-1.77044e-06
-1.40328e-06
-1.86172e-06
-1.40328e-06
-4.98829e-07
5.06394e-07
-1.3934e-06
1.24777e-06
-2.58373e-06
1.97594e-06
-3.84649e-06
2.4193e-06
-5.0535e-06
2.49581e-06
-6.10794e-06
2.31229e-06
-6.97164e-06
1.97416e-06
-7.63292e-06
1.57923e-06
-8.14353e-06
1.19751e-06
-8.47629e-06
8.31114e-07
-8.63931e-06
4.55963e-07
-8.60528e-06
7.20519e-08
-8.42886e-06
-2.88829e-07
-8.07354e-06
-6.91536e-07
-7.49358e-06
-1.19979e-06
-6.63708e-06
-1.83146e-06
-5.41406e-06
-2.60643e-06
-3.77435e-06
-3.41015e-06
-1.8277e-06
-3.80837e-06
-3.23098e-06
-9.16971e-07
1.42336e-06
-2.0785e-06
2.4093e-06
-3.28787e-06
3.18531e-06
-4.40945e-06
3.54087e-06
-5.37241e-06
3.45877e-06
-6.12879e-06
3.06867e-06
-6.69211e-06
2.53748e-06
-7.05993e-06
1.94705e-06
-7.27613e-06
1.41371e-06
-7.33711e-06
8.92093e-07
-7.31823e-06
4.37092e-07
-7.22283e-06
-2.33484e-08
-7.0486e-06
-4.63066e-07
-6.76285e-06
-9.77283e-07
-6.35641e-06
-1.60623e-06
-5.76503e-06
-2.42283e-06
-4.89612e-06
-3.47535e-06
-3.61123e-06
-4.69503e-06
-1.91768e-06
-5.50193e-06
-5.14866e-06
-1.10589e-06
2.52925e-06
-2.27867e-06
3.58209e-06
-3.34981e-06
4.25645e-06
-4.25147e-06
4.44254e-06
-4.91329e-06
4.12059e-06
-5.32585e-06
3.48123e-06
-5.52188e-06
2.73351e-06
-5.57774e-06
2.00291e-06
-5.55867e-06
1.39464e-06
-5.52385e-06
8.5727e-07
-5.46202e-06
3.75258e-07
-5.38625e-06
-9.91169e-08
-5.24321e-06
-6.0611e-07
-5.04205e-06
-1.17844e-06
-4.77898e-06
-1.8693e-06
-4.43755e-06
-2.76426e-06
-3.93856e-06
-3.97434e-06
-3.06726e-06
-5.56633e-06
-1.72204e-06
-6.84714e-06
-6.8707e-06
-1.04688e-06
3.57613e-06
-2.07701e-06
4.61222e-06
-2.94629e-06
5.12573e-06
-3.58155e-06
5.0778e-06
-3.94348e-06
4.48252e-06
-4.08097e-06
3.61871e-06
-4.09202e-06
2.74457e-06
-4.07048e-06
1.98136e-06
-4.03424e-06
1.3584e-06
-3.99493e-06
8.1796e-07
-3.94377e-06
3.24099e-07
-3.8649e-06
-1.77985e-07
-3.7433e-06
-7.27703e-07
-3.57651e-06
-1.34524e-06
-3.3764e-06
-2.06941e-06
-3.15717e-06
-2.98349e-06
-2.89522e-06
-4.23629e-06
-2.38138e-06
-6.08017e-06
-1.41479e-06
-7.81373e-06
-8.28549e-06
-8.59859e-07
4.43599e-06
-1.6863e-06
5.43866e-06
-2.32891e-06
5.76834e-06
-2.74071e-06
5.4896e-06
-2.91873e-06
4.66054e-06
-2.9529e-06
3.65288e-06
-2.93316e-06
2.72483e-06
-2.91788e-06
1.96609e-06
-2.91742e-06
1.35794e-06
-2.9233e-06
8.23838e-07
-2.91317e-06
3.13964e-07
-2.86339e-06
-2.27761e-07
-2.76122e-06
-8.2987e-07
-2.60051e-06
-1.50595e-06
-2.39981e-06
-2.27012e-06
-2.20304e-06
-3.18026e-06
-2.05138e-06
-4.38795e-06
-1.81583e-06
-6.31572e-06
-1.10966e-06
-8.5199e-06
-9.39515e-06
-6.37227e-07
5.07321e-06
-1.22979e-06
6.03123e-06
-1.66832e-06
6.20687e-06
-1.922e-06
5.74328e-06
-2.01314e-06
4.75168e-06
-2.02458e-06
3.66431e-06
-2.02182e-06
2.72207e-06
-2.04037e-06
1.98463e-06
-2.07476e-06
1.39233e-06
-2.11095e-06
8.6003e-07
-2.1258e-06
3.28819e-07
-2.09853e-06
-2.55034e-07
-2.01752e-06
-9.10882e-07
-1.88089e-06
-1.64257e-06
-1.70303e-06
-2.44799e-06
-1.51592e-06
-3.36736e-06
-1.38321e-06
-4.52066e-06
-1.2783e-06
-6.42062e-06
-8.75143e-07
-8.92306e-06
-1.02703e-05
-3.95517e-07
5.46873e-06
-7.76036e-07
6.41175e-06
-1.04988e-06
6.48072e-06
-1.19922e-06
5.89262e-06
-1.25275e-06
4.80521e-06
-1.26511e-06
3.67667e-06
-1.28492e-06
2.74188e-06
-1.32404e-06
2.02376e-06
-1.37104e-06
1.43933e-06
-1.41285e-06
9.01844e-07
-1.43253e-06
3.48492e-07
-1.4181e-06
-2.69459e-07
-1.36193e-06
-9.67049e-07
-1.263e-06
-1.74151e-06
-1.13167e-06
-2.57931e-06
-9.92019e-07
-3.50701e-06
-9.08571e-07
-4.60411e-06
-8.77085e-07
-6.45211e-06
-6.55365e-07
-9.14478e-06
-1.09257e-05
-1.7805e-07
5.64678e-06
-3.60439e-07
6.59414e-06
-4.97476e-07
6.61775e-06
-5.69421e-07
5.96456e-06
-5.99683e-07
4.83547e-06
-6.18822e-07
3.69581e-06
-6.50867e-07
2.77392e-06
-6.92211e-07
2.0651e-06
-7.33428e-07
1.48055e-06
-7.66571e-07
9.34987e-07
-7.83754e-07
3.65675e-07
-7.80424e-07
-2.72788e-07
-7.53308e-07
-9.94165e-07
-7.00415e-07
-1.7944e-06
-6.28914e-07
-2.65082e-06
-5.46737e-07
-3.58919e-06
-5.20167e-07
-4.63068e-06
-5.39196e-07
-6.43308e-06
-5.0181e-07
-9.18217e-06
-1.14275e-05
4.58847e-08
5.6009e-06
-2.3816e-09
6.6424e-06
-2.33426e-08
6.63872e-06
-2.71165e-08
5.96834e-06
-1.95756e-08
4.82793e-06
-3.67786e-08
3.71301e-06
-6.86192e-08
2.80576e-06
-1.0176e-07
2.09824e-06
-1.2881e-07
1.5076e-06
-1.48737e-07
9.54914e-07
-1.61075e-07
3.78013e-07
-1.67813e-07
-2.6605e-07
-1.7117e-07
-9.90808e-07
-1.71328e-07
-1.79424e-06
-1.61886e-07
-2.66026e-06
-1.78187e-07
-3.57289e-06
-2.06122e-07
-4.60275e-06
-3.04369e-07
-6.33483e-06
-3.69032e-07
-9.11751e-06
-1.17965e-05
2.28028e-07
5.37287e-06
3.68316e-07
6.50211e-06
4.78312e-07
6.52872e-06
5.15743e-07
5.93091e-06
5.23258e-07
4.82042e-06
5.07915e-07
3.72836e-06
4.86385e-07
2.82729e-06
4.70107e-07
2.11452e-06
4.60847e-07
1.51686e-06
4.55081e-07
9.60681e-07
4.46157e-07
3.86937e-07
4.25977e-07
-2.4587e-07
3.89648e-07
-9.5448e-07
3.35663e-07
-1.74025e-06
2.69618e-07
-2.59421e-06
1.70725e-07
-3.47399e-06
8.78646e-08
-4.51988e-06
-1.25305e-07
-6.12166e-06
-2.90539e-07
-8.95227e-06
-1.2087e-05
4.07955e-07
4.96491e-06
6.85431e-07
6.22464e-06
9.07239e-07
6.30691e-06
1.01243e-06
5.82571e-06
1.04629e-06
4.78656e-06
1.04859e-06
3.72606e-06
1.04332e-06
2.83257e-06
1.04364e-06
2.11419e-06
1.04922e-06
1.51128e-06
1.05276e-06
9.57135e-07
1.04257e-06
3.97131e-07
1.00639e-06
-2.09687e-07
9.36325e-07
-8.84418e-07
8.29236e-07
-1.63317e-06
6.84576e-07
-2.44955e-06
5.25153e-07
-3.31457e-06
3.15686e-07
-4.31042e-06
5.92628e-09
-5.8119e-06
-1.99765e-07
-8.74658e-06
-1.22868e-05
5.62696e-07
4.40222e-06
9.88757e-07
5.79858e-06
1.31392e-06
5.98175e-06
1.51669e-06
5.62294e-06
1.59416e-06
4.70909e-06
1.62144e-06
3.69877e-06
1.63238e-06
2.82163e-06
1.6442e-06
2.10237e-06
1.6569e-06
1.49859e-06
1.66161e-06
9.52431e-07
1.64363e-06
4.15104e-07
1.58798e-06
-1.54029e-07
1.48368e-06
-7.80119e-07
1.32469e-06
-1.47418e-06
1.11208e-06
-2.23695e-06
8.71696e-07
-3.07419e-06
5.61398e-07
-4.00012e-06
2.09706e-07
-5.46021e-06
-7.9351e-08
-8.45752e-06
-1.23662e-05
6.78153e-07
3.72407e-06
1.23304e-06
5.24369e-06
1.66138e-06
5.55341e-06
1.97233e-06
5.31199e-06
2.1305e-06
4.55092e-06
2.20665e-06
3.62262e-06
2.24955e-06
2.77872e-06
2.28044e-06
2.07148e-06
2.30119e-06
1.47784e-06
2.30413e-06
9.49486e-07
2.27414e-06
4.45097e-07
2.1946e-06
-7.44922e-08
2.05366e-06
-6.39179e-07
1.84346e-06
-1.26397e-06
1.56181e-06
-1.9553e-06
1.22804e-06
-2.74041e-06
8.20142e-07
-3.59223e-06
4.02887e-07
-5.04296e-06
6.15798e-08
-8.11622e-06
-1.23046e-05
7.3189e-07
2.99218e-06
1.42313e-06
4.55245e-06
1.98671e-06
4.98983e-06
2.42684e-06
4.87186e-06
2.70575e-06
4.27202e-06
2.86264e-06
3.46573e-06
2.95118e-06
2.69018e-06
3.00256e-06
2.0201e-06
3.02601e-06
1.45439e-06
3.01932e-06
9.56177e-07
2.96942e-06
4.95001e-07
2.85873e-06
3.6198e-08
2.6751e-06
-4.55556e-07
2.41068e-06
-9.99553e-07
2.0543e-06
-1.59892e-06
1.61669e-06
-2.3028e-06
1.1002e-06
-3.07573e-06
6.08299e-07
-4.55106e-06
1.81023e-07
-7.68894e-06
-1.21236e-05
7.12061e-07
2.28011e-06
1.45349e-06
3.81102e-06
2.14163e-06
4.30169e-06
2.73005e-06
4.28345e-06
3.17011e-06
3.83196e-06
3.46387e-06
3.17196e-06
3.64788e-06
2.50617e-06
3.75729e-06
1.91069e-06
3.80797e-06
1.40371e-06
3.80487e-06
9.59279e-07
3.73889e-06
5.60979e-07
3.60731e-06
1.67785e-07
3.37845e-06
-2.26702e-07
3.05537e-06
-6.76472e-07
2.61248e-06
-1.15602e-06
2.05321e-06
-1.74353e-06
1.41576e-06
-2.43828e-06
8.32578e-07
-3.96787e-06
3.21459e-07
-7.17782e-06
-1.18021e-05
4.93502e-07
1.78661e-06
1.36871e-06
2.93582e-06
2.21507e-06
3.45532e-06
2.99329e-06
3.50523e-06
3.63266e-06
3.19259e-06
4.10022e-06
2.7044e-06
4.41452e-06
2.19187e-06
4.60957e-06
1.71565e-06
4.70473e-06
1.30855e-06
4.71748e-06
9.46524e-07
4.64171e-06
6.36752e-07
4.48044e-06
3.29051e-07
4.19363e-06
6.01069e-08
3.81175e-06
-2.94594e-07
3.2717e-06
-6.15967e-07
2.60383e-06
-1.07567e-06
1.87009e-06
-1.70454e-06
1.18775e-06
-3.28553e-06
5.07603e-07
-6.49768e-06
-1.12945e-05
6.91011e-08
1.71751e-06
8.37361e-07
2.16756e-06
1.7885e-06
2.50418e-06
2.78386e-06
2.50987e-06
3.67129e-06
2.30516e-06
4.37811e-06
1.99758e-06
4.89164e-06
1.67834e-06
5.23746e-06
1.36983e-06
5.43309e-06
1.11291e-06
5.51194e-06
8.67677e-07
5.4687e-06
6.79992e-07
5.3274e-06
4.70351e-07
5.07244e-06
3.15066e-07
4.72223e-06
5.5621e-08
4.20884e-06
-1.02577e-07
3.60555e-06
-4.72378e-07
2.91399e-06
-1.01299e-06
2.15374e-06
-2.52528e-06
1.03231e-06
-5.37624e-06
-1.02622e-05
-5.70173e-07
2.28768e-06
1.53888e-07
1.4435e-06
1.41789e-06
1.24018e-06
2.71184e-06
1.21592e-06
3.84242e-06
1.17458e-06
4.77108e-06
1.06892e-06
5.50853e-06
9.40895e-07
6.07607e-06
8.02293e-07
6.50034e-06
6.88628e-07
6.79379e-06
5.74232e-07
6.98933e-06
4.84452e-07
7.07614e-06
3.83543e-07
7.0911e-06
3.00102e-07
6.9648e-06
1.81928e-07
6.77603e-06
8.61914e-08
6.46475e-06
-1.61102e-07
5.95209e-06
-5.00321e-07
4.95217e-06
-1.52536e-06
2.76381e-06
-3.18789e-06
-7.49837e-06
2.28768e-06
3.73118e-06
4.97136e-06
6.18728e-06
7.36186e-06
8.43078e-06
9.37167e-06
1.0174e-05
1.08626e-05
1.14368e-05
1.19213e-05
1.23048e-05
1.26049e-05
1.27869e-05
1.2873e-05
1.27119e-05
1.22116e-05
1.06863e-05
7.49837e-06
)
;

boundaryField
{
    movingWall
    {
        type            calculated;
        value           uniform 0;
    }
    fixedWalls
    {
        type            calculated;
        value           uniform 0;
    }
    frontAndBack
    {
        type            empty;
        value           nonuniform 0();
    }
}


// ************************************************************************* //
