/*--------------------------------*- C++ -*----------------------------------*\
| =========                 |                                                 |
| \\      /  F ield         | OpenFOAM: The Open Source CFD Toolbox           |
|  \\    /   O peration     | Version:  4.1                                   |
|   \\  /    A nd           | Web:      www.OpenFOAM.org                      |
|    \\/     M anipulation  |                                                 |
\*---------------------------------------------------------------------------*/
FoamFile
{
    version     2.0;
    format      ascii;
    class       volVectorField;
    location    "5";
    object      U;
}
// * * * * * * * * * * * * * * * * * * * * * * * * * * * * * * * * * * * * * //

dimensions      [0 1 -1 0 0 0 0];

internalField   nonuniform List<vector> 
400
(
(0.00151572 -0.00256279 0)
(-0.00190437 0.00105921 0)
(-0.0114946 0.00548532 0)
(-0.0321856 0.0116124 0)
(-0.0595573 0.0140128 0)
(-0.0867036 0.0133572 0)
(-0.110888 0.0117957 0)
(-0.130838 0.00985692 0)
(-0.146352 0.00798301 0)
(-0.157958 0.00583974 0)
(-0.16585 0.00382597 0)
(-0.169531 0.00185918 0)
(-0.170219 -0.000747919 0)
(-0.164804 -0.00355064 0)
(-0.154659 -0.0067696 0)
(-0.137172 -0.0111596 0)
(-0.112714 -0.0152655 0)
(-0.0808254 -0.0188148 0)
(-0.0456942 -0.0176546 0)
(-0.0150212 -0.0100105 0)
(-0.00360908 0.00304454 0)
(-0.0161121 0.0144192 0)
(-0.0376967 0.0279622 0)
(-0.0638997 0.0363426 0)
(-0.0909961 0.038226 0)
(-0.114343 0.0360003 0)
(-0.133347 0.0314183 0)
(-0.147375 0.0262005 0)
(-0.159598 0.0189991 0)
(-0.167353 0.0135046 0)
(-0.172626 0.00732749 0)
(-0.173883 0.00187598 0)
(-0.172107 -0.00456118 0)
(-0.166403 -0.011609 0)
(-0.156462 -0.0206758 0)
(-0.140945 -0.0312993 0)
(-0.119047 -0.0438749 0)
(-0.0899354 -0.0553056 0)
(-0.0560253 -0.0584201 0)
(-0.0204431 -0.0441934 0)
(-0.00842792 0.0187816 0)
(-0.028236 0.037196 0)
(-0.053074 0.0520666 0)
(-0.0782676 0.0596515 0)
(-0.10077 0.0592518 0)
(-0.117601 0.0534346 0)
(-0.12958 0.0445653 0)
(-0.139188 0.0341497 0)
(-0.144825 0.0256612 0)
(-0.146754 0.0166832 0)
(-0.147215 0.00848761 0)
(-0.145938 -2.12962e-05 0)
(-0.144113 -0.00884887 0)
(-0.13931 -0.01891 0)
(-0.132363 -0.0312365 0)
(-0.121426 -0.0470016 0)
(-0.105746 -0.0663644 0)
(-0.0830271 -0.0870865 0)
(-0.0550223 -0.0986446 0)
(-0.0213408 -0.0879323 0)
(-0.0110843 0.0395936 0)
(-0.0332393 0.0602494 0)
(-0.0571624 0.074356 0)
(-0.0787573 0.0794035 0)
(-0.0948324 0.075407 0)
(-0.104552 0.0651105 0)
(-0.110269 0.0524876 0)
(-0.11187 0.039906 0)
(-0.11097 0.0282539 0)
(-0.110946 0.0175326 0)
(-0.110234 0.00820366 0)
(-0.109043 -0.00110641 0)
(-0.107002 -0.01064 0)
(-0.103718 -0.021675 0)
(-0.0993344 -0.0353164 0)
(-0.093198 -0.0534634 0)
(-0.0838773 -0.0776647 0)
(-0.0680056 -0.106762 0)
(-0.0475579 -0.127701 0)
(-0.0188952 -0.12472 0)
(-0.010901 0.0603386 0)
(-0.0315454 0.0811894 0)
(-0.0523203 0.0932578 0)
(-0.0686906 0.0948446 0)
(-0.0781747 0.0859679 0)
(-0.0817061 0.0713278 0)
(-0.0822971 0.0554805 0)
(-0.0813314 0.0406987 0)
(-0.0807266 0.028148 0)
(-0.0802756 0.0171908 0)
(-0.0795816 0.00728833 0)
(-0.0784818 -0.00249185 0)
(-0.0764836 -0.0126899 0)
(-0.0737203 -0.0242979 0)
(-0.0702359 -0.03826 0)
(-0.0663914 -0.056634 0)
(-0.0616106 -0.0826963 0)
(-0.0508559 -0.119399 0)
(-0.0380782 -0.14966 0)
(-0.0158409 -0.155062 0)
(-0.00878042 0.0792299 0)
(-0.0263174 0.100094 0)
(-0.0426031 0.108709 0)
(-0.0540095 0.10557 0)
(-0.0587816 0.0917409 0)
(-0.0592141 0.0733391 0)
(-0.0585562 0.0553246 0)
(-0.0579382 0.0398971 0)
(-0.0581294 0.0274171 0)
(-0.0583976 0.0165186 0)
(-0.0586119 0.0063283 0)
(-0.0581292 -0.00420362 0)
(-0.0566023 -0.0156488 0)
(-0.0539372 -0.0284225 0)
(-0.0503382 -0.0429719 0)
(-0.0464127 -0.0607221 0)
(-0.0438587 -0.0852612 0)
(-0.0362521 -0.124469 0)
(-0.0316609 -0.165494 0)
(-0.00925384 -0.178972 0)
(-0.0064833 0.094734 0)
(-0.0197743 0.114332 0)
(-0.0310276 0.119351 0)
(-0.0387489 0.112408 0)
(-0.0406976 0.094518 0)
(-0.0402591 0.0736319 0)
(-0.0399089 0.0547799 0)
(-0.0401294 0.039676 0)
(-0.0410155 0.027583 0)
(-0.0419416 0.0168529 0)
(-0.0426854 0.00636438 0)
(-0.0425998 -0.00497677 0)
(-0.0414399 -0.0176627 0)
(-0.0391446 -0.0317944 0)
(-0.035949 -0.0474532 0)
(-0.0319344 -0.0655563 0)
(-0.0305549 -0.0886448 0)
(-0.0233758 -0.126931 0)
(-0.0249498 -0.175732 0)
(-0.00639067 -0.198014 0)
(-0.00355874 0.105459 0)
(-0.0128441 0.125011 0)
(-0.0196782 0.127477 0)
(-0.0247489 0.116807 0)
(-0.0251436 0.0959942 0)
(-0.0247885 0.0736847 0)
(-0.0249863 0.0547676 0)
(-0.025754 0.0401427 0)
(-0.0268999 0.0283277 0)
(-0.0279849 0.0175879 0)
(-0.02877 0.00668828 0)
(-0.0288192 -0.00539094 0)
(-0.027989 -0.0190516 0)
(-0.0262851 -0.0341941 0)
(-0.0240417 -0.0506313 0)
(-0.0203776 -0.0690516 0)
(-0.0208715 -0.0911176 0)
(-0.0139968 -0.128793 0)
(-0.0204754 -0.181008 0)
(-0.00230517 -0.212634 0)
(-0.00147552 0.112251 0)
(-0.00606494 0.130431 0)
(-0.00942563 0.13119 0)
(-0.0122157 0.118854 0)
(-0.0118349 0.0965395 0)
(-0.0117776 0.073769 0)
(-0.0123327 0.0551692 0)
(-0.0132353 0.0409033 0)
(-0.0142616 0.0292068 0)
(-0.0151538 0.0183551 0)
(-0.0157628 0.00708619 0)
(-0.0158733 -0.00554551 0)
(-0.0154302 -0.0198709 0)
(-0.0144654 -0.0357251 0)
(-0.0135696 -0.0527417 0)
(-0.0104086 -0.071346 0)
(-0.0130311 -0.0925576 0)
(-0.00607257 -0.128948 0)
(-0.0169074 -0.183175 0)
(-0.000157883 -0.224093 0)
(0.00172631 0.113333 0)
(6.5734e-05 0.133726 0)
(-0.000266445 0.133917 0)
(-0.00108973 0.119971 0)
(-0.000291375 0.0970467 0)
(-0.000369398 0.0742582 0)
(-0.000904657 0.055861 0)
(-0.00163238 0.0416786 0)
(-0.00233666 0.0299264 0)
(-0.00288673 0.0189291 0)
(-0.00324689 0.00742665 0)
(-0.00340082 -0.00546371 0)
(-0.00339769 -0.0200379 0)
(-0.00322415 -0.0361779 0)
(-0.00390996 -0.0534827 0)
(-0.00159622 -0.0718883 0)
(-0.00685753 -0.0929535 0)
(0.000307891 -0.127643 0)
(-0.0145218 -0.183131 0)
(0.0025784 -0.232688 0)
(0.00349455 0.110928 0)
(0.00559366 0.132154 0)
(0.00820702 0.132096 0)
(0.0092508 0.118946 0)
(0.0104994 0.0964573 0)
(0.0105912 0.0743124 0)
(0.0101512 0.0562809 0)
(0.00963932 0.0421469 0)
(0.00927444 0.0303032 0)
(0.00906739 0.0192183 0)
(0.00891963 0.00768321 0)
(0.00870329 -0.00514234 0)
(0.00823302 -0.0195559 0)
(0.00759612 -0.0355499 0)
(0.00548071 -0.0528278 0)
(0.00660295 -0.0707606 0)
(-0.00127515 -0.0915657 0)
(0.00625046 -0.124152 0)
(-0.0131696 -0.18113 0)
(0.0045193 -0.239025 0)
(0.00550767 0.105263 0)
(0.0105182 0.129311 0)
(0.0158202 0.12993 0)
(0.018548 0.118867 0)
(0.0206476 0.0964714 0)
(0.0212174 0.0747904 0)
(0.0211314 0.056751 0)
(0.0209434 0.042399 0)
(0.0209028 0.0303795 0)
(0.0209605 0.0192651 0)
(0.0209163 0.00789931 0)
(0.0205667 -0.00455703 0)
(0.0195649 -0.0184342 0)
(0.0181635 -0.0338561 0)
(0.0146996 -0.0506489 0)
(0.014429 -0.0682189 0)
(0.0041378 -0.0884745 0)
(0.0115179 -0.119298 0)
(-0.0124237 -0.177158 0)
(0.0074337 -0.243163 0)
(0.00708506 0.0950663 0)
(0.0150582 0.12098 0)
(0.0232622 0.122944 0)
(0.027608 0.114699 0)
(0.0311565 0.094846 0)
(0.0324189 0.074033 0)
(0.032743 0.0564192 0)
(0.0328414 0.0421339 0)
(0.0330026 0.0301235 0)
(0.0331694 0.019144 0)
(0.0330687 0.00815852 0)
(0.0324957 -0.00365714 0)
(0.0308826 -0.0166712 0)
(0.0287975 -0.0311551 0)
(0.0239356 -0.0470325 0)
(0.0223864 -0.0641285 0)
(0.00983609 -0.0830764 0)
(0.0166275 -0.112653 0)
(-0.0116058 -0.171432 0)
(0.0106265 -0.245664 0)
(0.00876959 0.083181 0)
(0.0187353 0.11303 0)
(0.0292595 0.117534 0)
(0.0357264 0.11096 0)
(0.0409028 0.0939636 0)
(0.0435438 0.0740063 0)
(0.0447442 0.0564495 0)
(0.0454005 0.0420009 0)
(0.0458509 0.0299303 0)
(0.0461043 0.0191259 0)
(0.0458424 0.00865207 0)
(0.0449835 -0.00232685 0)
(0.042642 -0.0142089 0)
(0.0399138 -0.0274116 0)
(0.0335487 -0.0420065 0)
(0.0308607 -0.0582477 0)
(0.0157759 -0.075898 0)
(0.021647 -0.105295 0)
(-0.0103943 -0.165599 0)
(0.0149741 -0.247266 0)
(0.0089028 0.0673471 0)
(0.0214966 0.097829 0)
(0.0344489 0.105585 0)
(0.0436533 0.101967 0)
(0.0510573 0.088427 0)
(0.0557001 0.071044 0)
(0.0582593 0.054776 0)
(0.0596654 0.0409533 0)
(0.0603683 0.029334 0)
(0.0605923 0.0190604 0)
(0.0599636 0.00938734 0)
(0.0587089 -0.000531662 0)
(0.0554421 -0.0109714 0)
(0.0520598 -0.0225801 0)
(0.0440875 -0.0354861 0)
(0.0402619 -0.0503687 0)
(0.0221358 -0.0667032 0)
(0.0270337 -0.0963384 0)
(-0.00882079 -0.159379 0)
(0.0198409 -0.248909 0)
(0.00914379 0.0539587 0)
(0.021349 0.0866365 0)
(0.0362468 0.096107 0)
(0.0483987 0.0945359 0)
(0.058562 0.0837477 0)
(0.0661207 0.0685458 0)
(0.0711088 0.0534937 0)
(0.0742208 0.0403439 0)
(0.0757993 0.029307 0)
(0.0764397 0.0196864 0)
(0.075512 0.0109458 0)
(0.0740763 0.00224274 0)
(0.0698533 -0.00660461 0)
(0.0658497 -0.0165407 0)
(0.056255 -0.0273872 0)
(0.0506325 -0.0405909 0)
(0.0293104 -0.0556841 0)
(0.0332323 -0.0867534 0)
(-0.00747667 -0.153003 0)
(0.0257926 -0.249659 0)
(0.00270366 0.0356516 0)
(0.0192062 0.0641872 0)
(0.0364516 0.0763352 0)
(0.0519029 0.0779569 0)
(0.065731 0.0711147 0)
(0.0768173 0.0599426 0)
(0.0849432 0.048018 0)
(0.0904162 0.0368263 0)
(0.0932835 0.027127 0)
(0.0947868 0.0186981 0)
(0.0935431 0.0112938 0)
(0.0921126 0.00420465 0)
(0.0865503 -0.00272679 0)
(0.0819015 -0.0105154 0)
(0.0705366 -0.018517 0)
(0.0626809 -0.0289811 0)
(0.0391774 -0.0429806 0)
(0.0420837 -0.0755431 0)
(-0.00473059 -0.14391 0)
(0.0337731 -0.243199 0)
(-0.00338029 0.042197 0)
(0.00717993 0.0591366 0)
(0.0270953 0.0662029 0)
(0.0458011 0.0660546 0)
(0.0637859 0.0603108 0)
(0.0799515 0.051726 0)
(0.0922621 0.0428531 0)
(0.101736 0.0347491 0)
(0.10649 0.0277699 0)
(0.110311 0.0212748 0)
(0.109437 0.0158816 0)
(0.109154 0.0102629 0)
(0.103476 0.00575031 0)
(0.0995868 -3.00519e-05 0)
(0.0884074 -0.00469937 0)
(0.0809889 -0.013356 0)
(0.0597828 -0.0269519 0)
(0.0615771 -0.0606079 0)
(0.00896029 -0.123814 0)
(0.0498599 -0.215169 0)
(-0.00776511 0.012142 0)
(-0.0104849 0.0137365 0)
(0.0163469 0.0237125 0)
(0.0415502 0.0283189 0)
(0.0647064 0.0286643 0)
(0.0857577 0.0262198 0)
(0.10216 0.0228054 0)
(0.116311 0.0187138 0)
(0.125595 0.0154869 0)
(0.133777 0.0121086 0)
(0.137696 0.00987914 0)
(0.141338 0.0069589 0)
(0.141338 0.00522391 0)
(0.140954 0.00140665 0)
(0.136349 -0.000537338 0)
(0.133044 -0.00734124 0)
(0.119706 -0.0156547 0)
(0.115454 -0.0413126 0)
(0.0594003 -0.0852623 0)
(0.0873052 -0.158394 0)
(0.0482269 0.0984744 0)
(0.0536963 0.0586096 0)
(0.0865958 0.0360619 0)
(0.112553 0.0268083 0)
(0.135365 0.0224344 0)
(0.157715 0.0194641 0)
(0.177514 0.0171433 0)
(0.195633 0.0151927 0)
(0.210545 0.0135604 0)
(0.223497 0.0122276 0)
(0.23384 0.0108979 0)
(0.242468 0.00991551 0)
(0.249061 0.00848472 0)
(0.25377 0.00757411 0)
(0.256542 0.00534396 0)
(0.25532 0.00287993 0)
(0.248655 0.000519447 0)
(0.234275 -0.0081168 0)
(0.180928 -0.0207541 0)
(0.169019 -0.116859 0)
)
;

boundaryField
{
    movingWall
    {
        type            fixedValue;
        value           uniform (1 0 0);
    }
    fixedWalls
    {
        type            noSlip;
    }
    frontAndBack
    {
        type            empty;
    }
}


// ************************************************************************* //
