/*--------------------------------*- C++ -*----------------------------------*\
| =========                 |                                                 |
| \\      /  F ield         | OpenFOAM: The Open Source CFD Toolbox           |
|  \\    /   O peration     | Version:  4.1                                   |
|   \\  /    A nd           | Web:      www.OpenFOAM.org                      |
|    \\/     M anipulation  |                                                 |
\*---------------------------------------------------------------------------*/
FoamFile
{
    version     2.0;
    format      ascii;
    class       volScalarField;
    location    "2";
    object      epsilon;
}
// * * * * * * * * * * * * * * * * * * * * * * * * * * * * * * * * * * * * * //

dimensions      [0 2 -3 0 0 0 0];

internalField   nonuniform List<scalar> 
400
(
7.95248e-05
0.000155253
0.000276754
0.000431731
0.000634882
0.000918627
0.00134114
0.00201101
0.00307137
0.00454562
0.00591002
0.00650637
0.00664989
0.00646084
0.00586749
0.0054011
0.00493706
0.00433315
0.0031993
0.00236673
0.000142076
0.000149319
0.00021658
0.000299165
0.000408728
0.000572112
0.000830317
0.00125843
0.00191718
0.00245226
0.00259563
0.00241951
0.00223027
0.00219995
0.00257141
0.00312198
0.00387853
0.00496578
0.00641858
0.00708488
0.000267011
0.000186556
0.000236369
0.000307782
0.000393959
0.00050955
0.000689893
0.00096722
0.0013251
0.00149287
0.00150534
0.00147446
0.00154439
0.00177404
0.00212003
0.00263803
0.00349131
0.00499325
0.0078378
0.0122114
0.000414094
0.000236882
0.000267544
0.00033159
0.000412173
0.000518131
0.000658532
0.000842097
0.00105831
0.00115408
0.00116308
0.00115923
0.00122358
0.00134034
0.00154058
0.0019392
0.00271162
0.00430353
0.00802688
0.015563
0.000569324
0.00028221
0.000292969
0.000352404
0.000431244
0.000528602
0.000646
0.000778617
0.00091584
0.000974978
0.000973522
0.000957791
0.000955134
0.000986021
0.00111262
0.00144244
0.00216983
0.00373733
0.00777666
0.0181231
0.000721311
0.000318716
0.000310318
0.000361596
0.000433446
0.000523533
0.000628451
0.000729657
0.00081017
0.000845702
0.000836941
0.0008023
0.000770078
0.000759605
0.00083341
0.00113207
0.00185779
0.00346059
0.00755385
0.0201178
0.000860342
0.000347131
0.000320032
0.000360621
0.000426608
0.000508329
0.000599521
0.000684574
0.000731424
0.000740968
0.00072325
0.000682932
0.000643547
0.000625138
0.000687918
0.000983479
0.00170809
0.00335058
0.00748465
0.0217639
0.000979665
0.000369783
0.000324239
0.000355233
0.000411094
0.000481716
0.000561588
0.000638371
0.000679306
0.00067437
0.000641441
0.000596032
0.000559641
0.000555801
0.000636665
0.000933744
0.00166069
0.00333993
0.00759032
0.0233651
0.00107507
0.000388155
0.000325093
0.000345401
0.000391583
0.000451734
0.000520588
0.000589213
0.000636638
0.000641278
0.000609815
0.000562372
0.00053139
0.00054531
0.000638607
0.000940682
0.0016698
0.00346003
0.00802787
0.0249379
0.00114532
0.000403079
0.000324434
0.000335278
0.000372403
0.000422712
0.00048121
0.000541673
0.000591423
0.000613694
0.000601744
0.000570787
0.000548226
0.000576338
0.000692867
0.000999242
0.00170521
0.00357862
0.00864136
0.026767
0.00119036
0.000414503
0.000323339
0.000326369
0.000355621
0.000397377
0.000446603
0.000498735
0.000546056
0.00057816
0.000587131
0.000578953
0.000580233
0.000615876
0.000731768
0.00101943
0.00170662
0.00363131
0.00940543
0.0288403
0.00121435
0.000424989
0.000322572
0.000319351
0.000341908
0.000376832
0.00041835
0.00046278
0.000505105
0.000538863
0.000559148
0.000568873
0.000581697
0.000624846
0.000736076
0.000999197
0.00164341
0.00363359
0.0102327
0.0314397
0.00122161
0.000431026
0.00032197
0.000314142
0.000331774
0.000361461
0.000396889
0.000434737
0.000471317
0.000502394
0.000525022
0.000540954
0.000561151
0.000604262
0.000701605
0.000929893
0.00150998
0.00350775
0.0110713
0.034659
0.00122242
0.000431314
0.000321622
0.000312115
0.000326985
0.000352973
0.000383604
0.000415785
0.000446739
0.00047333
0.000493584
0.00050867
0.00052637
0.00056317
0.000644237
0.000837123
0.00134667
0.00332745
0.0119197
0.038865
0.00122759
0.000428499
0.000322311
0.000314005
0.000329132
0.000354532
0.000383747
0.000413204
0.000440111
0.000462312
0.000478463
0.000489826
0.00050209
0.000529072
0.000592681
0.000755827
0.00120336
0.00324028
0.013087
0.0444187
0.00125247
0.000429556
0.000330406
0.000327988
0.000347221
0.000375008
0.000405234
0.000435198
0.000462225
0.000484309
0.000499934
0.000510714
0.000520541
0.000541591
0.000591318
0.000728053
0.00114356
0.00337053
0.0153187
0.052003
0.00129596
0.000451966
0.000380735
0.000402425
0.000442195
0.000486818
0.000531335
0.00057383
0.000611447
0.000643772
0.000667368
0.000687647
0.000703719
0.000731022
0.000780185
0.000910671
0.00136703
0.00420457
0.0193604
0.063122
0.00156289
0.000721906
0.00084432
0.00101182
0.001173
0.0013259
0.0014659
0.00159757
0.00170976
0.00181975
0.00190227
0.00200095
0.0020706
0.00219236
0.00229939
0.00252917
0.00345759
0.0085743
0.029655
0.0808057
0.00272894
0.00491661
0.00781156
0.00982591
0.0113185
0.0125243
0.0134858
0.0143176
0.0149447
0.0155671
0.0159888
0.016594
0.0169193
0.0176094
0.018075
0.0190459
0.0227852
0.0360221
0.0697849
0.116001
0.0404647
0.0828829
0.123346
0.148363
0.163562
0.172858
0.178401
0.181377
0.182626
0.182519
0.181915
0.181062
0.179313
0.178377
0.177226
0.177906
0.179929
0.183277
0.195133
0.164237
)
;

boundaryField
{
    movingWall
    {
        Cmu             0.09;
        kappa           0.41;
        E               9.8;
        type            epsilonWallFunction;
        value           nonuniform List<scalar> 
20
(
0.0404647
0.0828829
0.123346
0.148363
0.163562
0.172858
0.178401
0.181377
0.182626
0.182519
0.181915
0.181062
0.179313
0.178377
0.177226
0.177906
0.179929
0.183277
0.195133
0.164237
)
;
    }
    fixedWalls
    {
        Cmu             0.09;
        kappa           0.41;
        E               9.8;
        type            epsilonWallFunction;
        value           nonuniform List<scalar> 
60
(
7.95248e-05
0.000142076
0.000267011
0.000414094
0.000569324
0.000721311
0.000860342
0.000979665
0.00107507
0.00114532
0.00119036
0.00121435
0.00122161
0.00122242
0.00122759
0.00125247
0.00129596
0.00156289
0.00272894
0.0404647
0.00236673
0.00708488
0.0122114
0.015563
0.0181231
0.0201178
0.0217639
0.0233651
0.0249379
0.026767
0.0288403
0.0314397
0.034659
0.038865
0.0444187
0.052003
0.063122
0.0808057
0.116001
0.164237
7.95248e-05
0.000155253
0.000276754
0.000431731
0.000634882
0.000918627
0.00134114
0.00201101
0.00307137
0.00454562
0.00591002
0.00650637
0.00664989
0.00646084
0.00586749
0.0054011
0.00493706
0.00433315
0.0031993
0.00236673
)
;
    }
    frontAndBack
    {
        type            empty;
    }
}


// ************************************************************************* //
