/*--------------------------------*- C++ -*----------------------------------*\
| =========                 |                                                 |
| \\      /  F ield         | OpenFOAM: The Open Source CFD Toolbox           |
|  \\    /   O peration     | Version:  4.1                                   |
|   \\  /    A nd           | Web:      www.OpenFOAM.org                      |
|    \\/     M anipulation  |                                                 |
\*---------------------------------------------------------------------------*/
FoamFile
{
    version     2.0;
    format      ascii;
    class       volScalarField;
    location    "2";
    object      k;
}
// * * * * * * * * * * * * * * * * * * * * * * * * * * * * * * * * * * * * * //

dimensions      [0 2 -2 0 0 0 0];

internalField   nonuniform List<scalar> 
400
(
6.25159e-05
9.77204e-05
0.000143818
0.000193653
0.000250692
0.000321084
0.000413937
0.000543741
0.000723178
0.000940316
0.00111662
0.00118831
0.00120463
0.00117982
0.0011059
0.00104675
0.000985199
0.000903147
0.000738531
0.000605142
9.20539e-05
0.000147825
0.000193611
0.000229775
0.000267712
0.000312002
0.000366935
0.000455292
0.00059351
0.000716412
0.000750873
0.000750954
0.000750241
0.000796913
0.000871545
0.0009729
0.00108194
0.00120016
0.00128055
0.00125261
0.00014032
0.000223213
0.000282877
0.000316909
0.00033442
0.0003512
0.000389728
0.000455446
0.000539115
0.000609777
0.000634607
0.000646245
0.000688144
0.000757612
0.000834744
0.000925283
0.00103859
0.00120541
0.00147279
0.00179758
0.000188151
0.00028644
0.000361752
0.000409338
0.000430232
0.000434511
0.00043906
0.000466895
0.00052121
0.000567556
0.000590015
0.000611399
0.000658683
0.000721655
0.000790069
0.000878955
0.000999028
0.00117262
0.00149836
0.00211197
0.000232777
0.00033603
0.000423035
0.000481986
0.000513371
0.000518699
0.000506199
0.000497586
0.000511465
0.000536949
0.000558124
0.000582848
0.000622843
0.00067455
0.000740518
0.000841337
0.000986863
0.00116827
0.00150344
0.00233762
0.000272667
0.000371533
0.000465947
0.000533004
0.000576972
0.000590107
0.000579099
0.000540579
0.00051395
0.00051139
0.000518593
0.000536588
0.000564458
0.00059906
0.000661011
0.000790099
0.000985619
0.00120792
0.00152591
0.00250585
0.000306753
0.000394531
0.000492476
0.000564582
0.000618265
0.000642785
0.000641253
0.000603846
0.000539257
0.000503652
0.000480764
0.000478128
0.000494071
0.000521222
0.000594212
0.00076662
0.00100162
0.00126707
0.00157803
0.00264103
0.000334554
0.000407742
0.000506189
0.000581079
0.000639729
0.000676783
0.00068673
0.000664653
0.000602115
0.000523256
0.000480682
0.000452149
0.000445852
0.00047358
0.000568594
0.00076508
0.00104474
0.00133557
0.00165053
0.00276903
0.000355964
0.000414032
0.000510925
0.000586691
0.00064783
0.000693293
0.00071569
0.0007116
0.000671004
0.000592736
0.000512988
0.000468406
0.000455454
0.000482245
0.000584208
0.000814821
0.00110409
0.00139275
0.001732
0.0028922
0.0003713
0.00041545
0.00050983
0.00058532
0.000647162
0.000696697
0.000729785
0.000740738
0.000723547
0.000677155
0.000604309
0.00053674
0.000510799
0.000546882
0.000663751
0.000898449
0.00114881
0.00142102
0.00182621
0.00303207
0.000380933
0.000414339
0.000506712
0.000581468
0.000643652
0.000694857
0.000733181
0.00075554
0.000755385
0.000735472
0.000693029
0.000643587
0.000621929
0.000656604
0.000763626
0.000958208
0.0011642
0.00142822
0.00191268
0.00318683
0.000385971
0.000411602
0.000501511
0.000575458
0.000637387
0.000689917
0.000731994
0.000760919
0.000773176
0.000768247
0.000749812
0.000721311
0.00071272
0.000742786
0.000828415
0.00097838
0.00114923
0.00138651
0.00199773
0.00337566
0.000387415
0.000407687
0.000496171
0.000569723
0.000631473
0.000684419
0.000728519
0.000761342
0.000780977
0.00078546
0.000779447
0.000765902
0.000764514
0.000787925
0.000851573
0.000966937
0.0010862
0.0012994
0.00207096
0.00360235
0.000387465
0.000404186
0.000491948
0.000565602
0.000627404
0.000680478
0.000725216
0.000760079
0.000782441
0.000791992
0.000790566
0.000783798
0.000781856
0.000796588
0.00083938
0.000919116
0.000994256
0.0011832
0.00214069
0.00388827
0.000388429
0.000402549
0.000490814
0.000564499
0.000625835
0.000678213
0.000722193
0.000756685
0.000779848
0.000790245
0.00078914
0.000782422
0.000775485
0.000780404
0.000801132
0.000848545
0.000884182
0.00105434
0.00222295
0.00425031
0.00039349
0.000403136
0.000492518
0.000565859
0.000625317
0.000675167
0.000716605
0.000749092
0.000771314
0.000781478
0.000779708
0.000771282
0.000756847
0.000747071
0.000749214
0.000766726
0.000770064
0.000991902
0.00237347
0.00472133
0.000402449
0.000407989
0.000496122
0.000565381
0.000620391
0.000665597
0.000703002
0.000732717
0.000753655
0.000764522
0.000763504
0.000756197
0.000740534
0.000722542
0.000705349
0.000699626
0.000699896
0.000977784
0.00264822
0.00537224
0.000455876
0.000438699
0.000531059
0.000595607
0.000649432
0.00069548
0.000735052
0.000768924
0.000794975
0.000814566
0.000822644
0.000826417
0.000822772
0.000819457
0.000810387
0.000808332
0.00085974
0.00135497
0.0033608
0.00633371
0.000661239
0.00082619
0.00111724
0.00130542
0.00144827
0.00156884
0.00166957
0.00176153
0.00183416
0.00190935
0.00196192
0.00203408
0.00207514
0.0021576
0.0022122
0.00231734
0.00261244
0.00352164
0.00584407
0.00805988
0.00399387
0.00644165
0.00839644
0.00949629
0.0101341
0.0105144
0.0107379
0.0108569
0.0109066
0.0109023
0.0108783
0.0108444
0.0107745
0.0107371
0.010691
0.0107184
0.0107996
0.0109332
0.0113998
0.0101624
)
;

boundaryField
{
    movingWall
    {
        type            kqRWallFunction;
        value           nonuniform List<scalar> 
20
(
0.00399387
0.00644165
0.00839644
0.00949629
0.0101341
0.0105144
0.0107379
0.0108569
0.0109066
0.0109023
0.0108783
0.0108444
0.0107745
0.0107371
0.010691
0.0107184
0.0107996
0.0109332
0.0113998
0.0101624
)
;
    }
    fixedWalls
    {
        type            kqRWallFunction;
        value           nonuniform List<scalar> 
60
(
6.25159e-05
9.20539e-05
0.00014032
0.000188151
0.000232777
0.000272667
0.000306753
0.000334554
0.000355964
0.0003713
0.000380933
0.000385971
0.000387415
0.000387465
0.000388429
0.00039349
0.000402449
0.000455876
0.000661239
0.00399387
0.000605142
0.00125261
0.00179758
0.00211197
0.00233762
0.00250585
0.00264103
0.00276903
0.0028922
0.00303207
0.00318683
0.00337566
0.00360235
0.00388827
0.00425031
0.00472133
0.00537224
0.00633371
0.00805988
0.0101624
6.25159e-05
9.77204e-05
0.000143818
0.000193653
0.000250692
0.000321084
0.000413937
0.000543741
0.000723178
0.000940316
0.00111662
0.00118831
0.00120463
0.00117982
0.0011059
0.00104675
0.000985199
0.000903147
0.000738531
0.000605142
)
;
    }
    frontAndBack
    {
        type            empty;
    }
}


// ************************************************************************* //
