/*--------------------------------*- C++ -*----------------------------------*\
| =========                 |                                                 |
| \\      /  F ield         | OpenFOAM: The Open Source CFD Toolbox           |
|  \\    /   O peration     | Version:  4.1                                   |
|   \\  /    A nd           | Web:      www.OpenFOAM.org                      |
|    \\/     M anipulation  |                                                 |
\*---------------------------------------------------------------------------*/
FoamFile
{
    version     2.0;
    format      ascii;
    class       volScalarField;
    location    "2";
    object      nut;
}
// * * * * * * * * * * * * * * * * * * * * * * * * * * * * * * * * * * * * * //

dimensions      [0 2 -1 0 0 0 0];

internalField   nonuniform List<scalar> 
400
(
4.42303e-06
5.53571e-06
6.72633e-06
7.81766e-06
8.90903e-06
1.01004e-05
1.14984e-05
1.32316e-05
1.5325e-05
1.75064e-05
1.89874e-05
1.95326e-05
1.96397e-05
1.93905e-05
1.87597e-05
1.82576e-05
1.76938e-05
1.69416e-05
1.53435e-05
1.39254e-05
5.36794e-06
1.3171e-05
1.55771e-05
1.58832e-05
1.57814e-05
1.53135e-05
1.45941e-05
1.4825e-05
1.65362e-05
1.88365e-05
1.95493e-05
2.09769e-05
2.27136e-05
2.59807e-05
2.65858e-05
2.72866e-05
2.71632e-05
2.61056e-05
2.2993e-05
1.99316e-05
6.63668e-06
2.40365e-05
3.04683e-05
2.93677e-05
2.55492e-05
2.17854e-05
1.98146e-05
1.93015e-05
1.97405e-05
2.24162e-05
2.40778e-05
2.54919e-05
2.75959e-05
2.91189e-05
2.95807e-05
2.92087e-05
2.78061e-05
2.61894e-05
2.49074e-05
2.38151e-05
7.69409e-06
3.1173e-05
4.40219e-05
4.54785e-05
4.04173e-05
3.27948e-05
2.6346e-05
2.3298e-05
2.31023e-05
2.51202e-05
2.69375e-05
2.90216e-05
3.19127e-05
3.49692e-05
3.64659e-05
3.58554e-05
3.3126e-05
2.87564e-05
2.51726e-05
2.57944e-05
8.56568e-06
3.60102e-05
5.49762e-05
5.93295e-05
5.50023e-05
4.58083e-05
3.56987e-05
2.8619e-05
2.57072e-05
2.66143e-05
2.87977e-05
3.19214e-05
3.6554e-05
4.15322e-05
4.43573e-05
4.41656e-05
4.03953e-05
3.28673e-05
2.61591e-05
2.71367e-05
9.27651e-06
3.89792e-05
6.29664e-05
7.071e-05
6.9122e-05
5.98632e-05
4.80261e-05
3.60447e-05
2.93432e-05
2.78311e-05
2.89202e-05
3.2299e-05
3.72366e-05
4.25202e-05
4.71847e-05
4.96288e-05
4.70613e-05
3.7946e-05
2.77417e-05
2.80913e-05
9.84348e-06
4.03563e-05
6.82057e-05
7.9551e-05
8.06422e-05
7.31525e-05
6.17302e-05
4.79374e-05
3.5782e-05
3.08109e-05
2.87619e-05
3.01268e-05
3.41382e-05
3.91123e-05
4.61943e-05
5.37821e-05
5.28611e-05
4.31243e-05
2.99435e-05
2.88439e-05
1.02825e-05
4.04639e-05
7.11219e-05
8.55461e-05
8.9597e-05
8.55758e-05
7.55783e-05
6.22816e-05
4.80325e-05
3.65403e-05
3.24192e-05
3.08699e-05
3.19679e-05
3.6317e-05
4.57022e-05
5.64194e-05
5.91522e-05
4.80663e-05
3.23022e-05
2.95346e-05
1.06076e-05
3.97471e-05
7.22685e-05
8.96886e-05
9.64584e-05
9.5762e-05
8.85519e-05
7.73468e-05
6.36503e-05
4.93081e-05
3.88382e-05
3.51127e-05
3.51333e-05
3.83826e-05
4.80999e-05
6.3522e-05
6.57038e-05
5.04554e-05
3.36309e-05
3.01884e-05
1.08334e-05
3.85381e-05
7.21054e-05
9.19653e-05
0.000101217
0.000103344
9.96087e-05
9.11664e-05
7.96669e-05
6.7246e-05
5.46198e-05
4.54251e-05
4.28334e-05
4.67038e-05
5.72272e-05
7.27041e-05
6.96568e-05
5.0784e-05
3.47346e-05
3.09116e-05
1.09714e-05
3.72758e-05
7.14671e-05
9.32363e-05
0.000104847
0.000109353
0.000108329
0.000103012
9.40462e-05
8.42027e-05
7.36224e-05
6.43893e-05
5.99958e-05
6.30023e-05
7.17183e-05
8.10596e-05
7.14763e-05
5.05555e-05
3.50065e-05
3.16928e-05
1.1041e-05
3.58773e-05
7.0174e-05
9.33258e-05
0.00010694
0.000113681
0.00011527
0.000112602
0.000106517
9.85747e-05
9.04941e-05
8.23138e-05
7.8593e-05
7.94688e-05
8.39104e-05
8.62198e-05
7.23285e-05
4.7616e-05
3.51017e-05
3.26198e-05
1.10577e-05
3.47051e-05
6.88162e-05
9.29916e-05
0.000108171
0.000116634
0.000120353
0.000119998
0.000116468
0.000110521
0.000104145
9.75952e-05
9.3742e-05
9.24672e-05
9.30238e-05
9.04911e-05
7.03213e-05
4.33212e-05
3.48647e-05
3.36975e-05
1.10532e-05
3.40888e-05
6.77227e-05
9.22465e-05
0.000108345
0.000118067
0.000123394
0.000125052
0.000123337
0.000119267
0.000113961
0.000108696
0.000104521
0.000101408
9.8427e-05
9.08225e-05
6.60658e-05
3.7866e-05
3.46005e-05
3.50103e-05
1.10615e-05
3.40353e-05
6.72668e-05
9.13341e-05
0.000107101
0.000116767
0.000122322
0.000124712
0.000124366
0.000121571
0.000117139
0.000112482
0.000107797
0.000103602
9.74607e-05
8.57373e-05
5.84695e-05
3.08759e-05
3.39828e-05
3.6603e-05
1.11261e-05
3.40508e-05
6.60753e-05
8.78621e-05
0.000101353
0.000109402
0.00011405
0.000116045
0.000115838
0.000113489
0.000109445
0.000104831
9.90385e-05
9.27459e-05
8.54344e-05
7.26707e-05
4.66698e-05
2.62713e-05
3.30972e-05
3.85782e-05
1.1248e-05
3.31461e-05
5.81831e-05
7.14893e-05
7.83355e-05
8.19026e-05
8.37118e-05
8.42038e-05
8.36044e-05
8.17128e-05
7.8614e-05
7.48423e-05
7.01347e-05
6.42745e-05
5.73922e-05
4.83741e-05
3.22501e-05
2.04648e-05
3.26014e-05
4.11502e-05
1.19676e-05
2.39937e-05
3.00622e-05
3.15542e-05
3.23602e-05
3.28323e-05
3.31722e-05
3.33081e-05
3.3267e-05
3.28159e-05
3.2018e-05
3.07189e-05
2.94243e-05
2.75667e-05
2.57049e-05
2.32511e-05
1.92399e-05
1.92711e-05
3.42791e-05
4.46804e-05
1.442e-05
1.2495e-05
1.43813e-05
1.56089e-05
1.66784e-05
1.76868e-05
1.86027e-05
1.95053e-05
2.02596e-05
2.10769e-05
2.16666e-05
2.24403e-05
2.29063e-05
2.37925e-05
2.43676e-05
2.53757e-05
2.69577e-05
3.09857e-05
4.40465e-05
5.04011e-05
3.54775e-05
4.5058e-05
5.14409e-05
5.47047e-05
5.65108e-05
5.75603e-05
5.81679e-05
5.84887e-05
5.8622e-05
5.86105e-05
5.8546e-05
5.84551e-05
5.82675e-05
5.8167e-05
5.80434e-05
5.81182e-05
5.83384e-05
5.86984e-05
5.99387e-05
5.65933e-05
)
;

boundaryField
{
    movingWall
    {
        type            nutkWallFunction;
        Cmu             0.09;
        kappa           0.41;
        E               9.8;
        value           nonuniform List<scalar> 
20
(
0
0
6.90968e-07
1.22604e-06
1.52008e-06
1.69036e-06
1.78877e-06
1.84069e-06
1.86229e-06
1.86044e-06
1.84999e-06
1.83524e-06
1.80478e-06
1.78842e-06
1.76822e-06
1.78023e-06
1.81572e-06
1.87379e-06
2.07351e-06
1.53288e-06
)
;
    }
    fixedWalls
    {
        type            nutkWallFunction;
        Cmu             0.09;
        kappa           0.41;
        E               9.8;
        value           nonuniform List<scalar> 
60
(
0
0
0
0
0
0
0
0
0
0
0
0
0
0
0
0
0
0
0
0
0
0
0
0
0
0
0
0
0
0
0
0
0
0
0
0
0
0
5.19227e-07
1.53288e-06
0
0
0
0
0
0
0
0
0
0
0
0
0
0
0
0
0
0
0
0
)
;
    }
    frontAndBack
    {
        type            empty;
    }
}


// ************************************************************************* //
