/*--------------------------------*- C++ -*----------------------------------*\
| =========                 |                                                 |
| \\      /  F ield         | OpenFOAM: The Open Source CFD Toolbox           |
|  \\    /   O peration     | Version:  4.1                                   |
|   \\  /    A nd           | Web:      www.OpenFOAM.org                      |
|    \\/     M anipulation  |                                                 |
\*---------------------------------------------------------------------------*/
FoamFile
{
    version     2.0;
    format      ascii;
    class       volScalarField;
    location    "2";
    object      p;
}
// * * * * * * * * * * * * * * * * * * * * * * * * * * * * * * * * * * * * * //

dimensions      [0 2 -2 0 0 0 0];

internalField   nonuniform List<scalar> 
400
(
9.13211e-08
-8.68907e-06
-8.56499e-06
-8.74765e-06
-2.07618e-05
-5.72587e-05
-0.00012636
-0.000231601
-0.000396554
-0.000706863
-0.00124795
-0.00190212
-0.00221348
-0.00182259
-0.000657395
0.00122535
0.00363183
0.00604445
0.00776578
0.00823356
9.24886e-06
-3.73736e-07
3.19197e-06
9.58809e-06
3.80773e-06
-3.29377e-05
-0.000122141
-0.00028766
-0.000577523
-0.00108143
-0.00182862
-0.00260486
-0.00300613
-0.00269983
-0.00167983
8.6739e-05
0.00237661
0.00480709
0.00674665
0.00754649
-1.50419e-05
-3.59387e-05
-3.91122e-05
-3.30117e-05
-3.83069e-05
-8.6261e-05
-0.000221364
-0.000499665
-0.00100537
-0.00182539
-0.00289255
-0.00394017
-0.00455736
-0.00440204
-0.00345276
-0.00188477
0.000191308
0.00254812
0.00471746
0.00583561
-9.04919e-05
-0.000127618
-0.00014953
-0.000160298
-0.00018471
-0.000262544
-0.000460916
-0.000874534
-0.00161593
-0.00275825
-0.00417376
-0.00550965
-0.00623715
-0.00614778
-0.00535183
-0.00399554
-0.00221271
-0.000110405
0.00204274
0.00328621
-0.000226944
-0.000280191
-0.000328442
-0.000371538
-0.000436537
-0.000567882
-0.000841658
-0.00137685
-0.00228332
-0.00365288
-0.00528376
-0.00676001
-0.00758354
-0.00758382
-0.00690009
-0.00573466
-0.00425165
-0.00250365
-0.000588564
0.000627987
-0.000418197
-0.000482193
-0.000555922
-0.000636444
-0.000750536
-0.000942884
-0.0012843
-0.00190365
-0.00288626
-0.00430197
-0.0059909
-0.00752653
-0.0084198
-0.00850704
-0.00792439
-0.00691449
-0.00568406
-0.00428405
-0.00279602
-0.00163485
-0.000645473
-0.000713246
-0.000804997
-0.000916421
-0.00107243
-0.00131424
-0.00170084
-0.00232667
-0.00330576
-0.00463469
-0.00622209
-0.00770925
-0.00862183
-0.00878776
-0.00831583
-0.00745416
-0.00645726
-0.00535551
-0.00425965
-0.00325359
-0.000886079
-0.000951447
-0.00105124
-0.00118099
-0.00136167
-0.00162781
-0.00202514
-0.00261736
-0.00349794
-0.0046485
-0.00601147
-0.00731479
-0.00817341
-0.00840359
-0.00806619
-0.00736916
-0.00662013
-0.00577674
-0.00501149
-0.0041905
-0.0011201
-0.00117851
-0.00127682
-0.00141124
-0.00159775
-0.00186363
-0.00224151
-0.00277097
-0.00350382
-0.00443345
-0.00549772
-0.00651958
-0.00723457
-0.00749068
-0.00731043
-0.00684124
-0.00631849
-0.00565308
-0.0051963
-0.00455291
-0.00133347
-0.00138242
-0.00147168
-0.00159902
-0.00177644
-0.00202317
-0.00236058
-0.00281203
-0.00339703
-0.00410651
-0.00488923
-0.00563551
-0.00618155
-0.00642989
-0.00636894
-0.00609022
-0.00574082
-0.00519802
-0.00503061
-0.0044865
-0.0015212
-0.00155739
-0.00163281
-0.00174367
-0.00190264
-0.00212018
-0.00240958
-0.00278206
-0.00324175
-0.00377494
-0.00434128
-0.0048709
-0.00527295
-0.00547056
-0.00547772
-0.00531319
-0.00508234
-0.00458146
-0.00468252
-0.00412479
-0.00167772
-0.00170274
-0.00175954
-0.0018513
-0.00198547
-0.00216975
-0.00241148
-0.00271491
-0.00307739
-0.00348342
-0.00390086
-0.00428208
-0.00457192
-0.00472335
-0.0047363
-0.00461894
-0.0044623
-0.00394933
-0.00426102
-0.00354567
-0.00180731
-0.00182031
-0.00185732
-0.00192568
-0.00203269
-0.00218391
-0.00238304
-0.00263049
-0.00292058
-0.00323787
-0.00355569
-0.00383831
-0.00404765
-0.00415521
-0.00415461
-0.00404544
-0.00393408
-0.00335924
-0.00386405
-0.00282118
-0.00191869
-0.001916
-0.00193055
-0.00197259
-0.00205131
-0.00217141
-0.00233438
-0.0025383
-0.00277594
-0.00303252
-0.00328499
-0.00350449
-0.00366125
-0.00373307
-0.00371346
-0.0035899
-0.00350964
-0.00283833
-0.00353104
-0.00206036
-0.00201822
-0.00199591
-0.0019848
-0.0019967
-0.00204601
-0.00213701
-0.00226971
-0.00244057
-0.00264138
-0.00285786
-0.00306961
-0.00325161
-0.00337768
-0.00342567
-0.00338888
-0.00323984
-0.00318337
-0.00239006
-0.00328211
-0.00138663
-0.00211555
-0.00206171
-0.00201996
-0.00199312
-0.00201046
-0.0020736
-0.00218081
-0.00232722
-0.00250408
-0.00269687
-0.00288741
-0.00305284
-0.00316836
-0.003207
-0.00316425
-0.00299362
-0.00294186
-0.00200876
-0.00309559
-0.000680614
-0.00223098
-0.00211709
-0.00203994
-0.001965
-0.00193975
-0.00197021
-0.00205267
-0.0021804
-0.00234475
-0.00253021
-0.00271796
-0.00288286
-0.0030058
-0.00305504
-0.003023
-0.00285796
-0.0027524
-0.00165765
-0.00271808
0.00132591
-0.00220866
-0.00195974
-0.0018941
-0.00181823
-0.00179081
-0.001811
-0.00188544
-0.00200824
-0.00217065
-0.00235708
-0.00255317
-0.00273199
-0.00287668
-0.00294752
-0.00292696
-0.00274903
-0.00246296
-0.00114181
-0.00084305
0.00816127
-0.00412076
-0.00325226
-0.00270976
-0.00222784
-0.00198704
-0.0018978
-0.00191186
-0.0019965
-0.00213612
-0.00230697
-0.00249989
-0.00267991
-0.00283692
-0.00291889
-0.00290174
-0.00263707
-0.00182664
0.000538342
0.0045621
0.0212154
0.00027544
0.00126309
0.000183041
-0.00053243
-0.00089594
-0.00112128
-0.00132891
-0.00154789
-0.0017815
-0.00202177
-0.00225896
-0.00247659
-0.00263172
-0.00266779
-0.00243455
-0.00175897
4.91517e-05
0.00440271
0.0132866
0.0316412
)
;

boundaryField
{
    movingWall
    {
        type            zeroGradient;
    }
    fixedWalls
    {
        type            zeroGradient;
    }
    frontAndBack
    {
        type            empty;
    }
}


// ************************************************************************* //
