/*--------------------------------*- C++ -*----------------------------------*\
| =========                 |                                                 |
| \\      /  F ield         | OpenFOAM: The Open Source CFD Toolbox           |
|  \\    /   O peration     | Version:  4.1                                   |
|   \\  /    A nd           | Web:      www.OpenFOAM.org                      |
|    \\/     M anipulation  |                                                 |
\*---------------------------------------------------------------------------*/
FoamFile
{
    version     2.0;
    format      ascii;
    class       surfaceScalarField;
    location    "2";
    object      phi;
}
// * * * * * * * * * * * * * * * * * * * * * * * * * * * * * * * * * * * * * //

dimensions      [0 3 -1 0 0 0 0];

internalField   nonuniform List<scalar> 
760
(
-5.92106e-08
5.92017e-08
-2.02652e-07
1.43441e-07
-3.96605e-07
1.93953e-07
-6.14398e-07
2.17792e-07
-8.52782e-07
2.38384e-07
-1.13193e-06
2.79146e-07
-1.5e-06
3.68073e-07
-2.02816e-06
5.28158e-07
-2.77785e-06
7.49691e-07
-3.73378e-06
9.55935e-07
-4.74395e-06
1.01017e-06
-5.5787e-06
8.3475e-07
-6.06631e-06
4.87612e-07
-6.18377e-06
1.17456e-07
-5.90316e-06
-2.80606e-07
-5.24703e-06
-6.56134e-07
-4.19549e-06
-1.05153e-06
-2.75933e-06
-1.43617e-06
-1.14643e-06
-1.6129e-06
-1.14643e-06
-1.50138e-07
2.0934e-07
-3.89833e-07
3.83136e-07
-6.88723e-07
4.92842e-07
-1.03723e-06
5.66303e-07
-1.43718e-06
6.38331e-07
-1.90577e-06
7.47732e-07
-2.48106e-06
9.43369e-07
-3.20219e-06
1.24928e-06
-4.06024e-06
1.60774e-06
-4.96085e-06
1.85655e-06
-5.75476e-06
1.80408e-06
-6.32579e-06
1.40578e-06
-6.629e-06
7.90818e-07
-6.57758e-06
6.60316e-08
-6.24608e-06
-6.12098e-07
-5.60234e-06
-1.29988e-06
-4.62027e-06
-2.0336e-06
-3.29569e-06
-2.76075e-06
-1.63784e-06
-3.27075e-06
-2.78427e-06
-2.16654e-07
4.25994e-07
-4.93694e-07
6.60176e-07
-8.18462e-07
8.1761e-07
-1.20442e-06
9.52265e-07
-1.66451e-06
1.09842e-06
-2.20602e-06
1.28924e-06
-2.83091e-06
1.56827e-06
-3.53572e-06
1.95409e-06
-4.28593e-06
2.35794e-06
-4.99533e-06
2.56595e-06
-5.57053e-06
2.37928e-06
-5.93488e-06
1.77013e-06
-6.04723e-06
9.03175e-07
-5.90116e-06
-8.00418e-08
-5.54689e-06
-9.66363e-07
-4.99634e-06
-1.85044e-06
-4.22853e-06
-2.80141e-06
-3.16188e-06
-3.8274e-06
-1.71874e-06
-4.71388e-06
-4.50301e-06
-2.44842e-07
6.70836e-07
-5.28938e-07
9.44272e-07
-8.42435e-07
1.13111e-06
-1.2034e-06
1.31323e-06
-1.62903e-06
1.52406e-06
-2.12797e-06
1.78817e-06
-2.6888e-06
2.1291e-06
-3.27926e-06
2.54455e-06
-3.85145e-06
2.93014e-06
-4.35452e-06
3.06902e-06
-4.7243e-06
2.74907e-06
-4.91104e-06
1.95687e-06
-4.89194e-06
8.84075e-07
-4.71519e-06
-2.56793e-07
-4.38663e-06
-1.29492e-06
-3.94028e-06
-2.29679e-06
-3.40123e-06
-3.34045e-06
-2.65967e-06
-4.56897e-06
-1.5209e-06
-5.85266e-06
-6.0239e-06
-2.39039e-07
9.09876e-07
-5.05315e-07
1.21055e-06
-7.84021e-07
1.40981e-06
-1.08799e-06
1.6172e-06
-1.42814e-06
1.86421e-06
-1.80817e-06
2.1682e-06
-2.21597e-06
2.53689e-06
-2.62939e-06
2.95798e-06
-3.00168e-06
3.30242e-06
-3.29246e-06
3.35979e-06
-3.49736e-06
2.95396e-06
-3.59653e-06
2.05604e-06
-3.56898e-06
8.56527e-07
-3.41957e-06
-4.06207e-07
-3.15218e-06
-1.56231e-06
-2.82156e-06
-2.62741e-06
-2.46752e-06
-3.69449e-06
-2.01671e-06
-5.01978e-06
-1.23465e-06
-6.63472e-06
-7.25855e-06
-2.09359e-07
1.11924e-06
-4.39351e-07
1.44054e-06
-6.68891e-07
1.63935e-06
-9.02172e-07
1.85048e-06
-1.14125e-06
2.10328e-06
-1.3826e-06
2.40956e-06
-1.61509e-06
2.76938e-06
-1.81905e-06
3.16194e-06
-1.96228e-06
3.44566e-06
-2.06585e-06
3.46336e-06
-2.16454e-06
3.05265e-06
-2.22961e-06
2.12111e-06
-2.23928e-06
8.66193e-07
-2.16991e-06
-4.75574e-07
-2.0059e-06
-1.72632e-06
-1.81499e-06
-2.81832e-06
-1.64292e-06
-3.86656e-06
-1.436e-06
-5.2267e-06
-9.3097e-07
-7.13975e-06
-8.18952e-06
-1.66029e-07
1.28527e-06
-3.49184e-07
1.6237e-06
-5.23305e-07
1.81347e-06
-6.84327e-07
2.0115e-06
-8.27347e-07
2.2463e-06
-9.416e-07
2.52381e-06
-1.01031e-06
2.83809e-06
-1.01403e-06
3.16566e-06
-9.65522e-07
3.39715e-06
-8.94971e-07
3.39281e-06
-8.64078e-07
3.02176e-06
-8.90801e-07
2.14784e-06
-9.35752e-07
9.11144e-07
-9.65105e-07
-4.46222e-07
-9.47359e-07
-1.74407e-06
-9.22658e-07
-2.84302e-06
-9.24328e-07
-3.86489e-06
-9.03335e-07
-5.24769e-06
-6.90428e-07
-7.35266e-06
-8.87995e-06
-1.17622e-07
1.40289e-06
-2.50526e-07
1.7566e-06
-3.69738e-07
1.93269e-06
-4.65294e-07
2.10706e-06
-5.28157e-07
2.30916e-06
-5.44774e-07
2.54043e-06
-4.97245e-07
2.79056e-06
-3.64449e-07
3.03286e-06
-1.62518e-07
3.19522e-06
5.81622e-08
3.17213e-06
2.38528e-07
2.84139e-06
3.03587e-07
2.08278e-06
2.57078e-07
9.57653e-07
1.40175e-07
-3.29319e-07
9.02389e-09
-1.61292e-06
-1.71119e-07
-2.66287e-06
-3.56812e-07
-3.6792e-06
-4.93429e-07
-5.11107e-06
-4.6707e-07
-7.37902e-06
-9.34702e-06
-7.08077e-08
1.4737e-06
-1.55499e-07
1.84129e-06
-2.24942e-07
2.00213e-06
-2.6579e-07
2.14791e-06
-2.67195e-07
2.31057e-06
-2.16282e-07
2.48951e-06
-9.68059e-08
2.67109e-06
1.05485e-07
2.83057e-06
3.83267e-07
2.91743e-06
7.0391e-07
2.85149e-06
9.93e-07
2.5523e-06
1.14849e-06
1.92729e-06
1.12961e-06
9.76528e-07
9.56076e-07
-1.55784e-07
6.84896e-07
-1.34174e-06
3.77511e-07
-2.35549e-06
6.27425e-08
-3.36443e-06
-2.12811e-07
-4.83552e-06
-3.27195e-07
-7.26463e-06
-9.67421e-06
-3.009e-08
1.50379e-06
-7.23759e-08
1.88358e-06
-9.96517e-08
2.02941e-06
-9.7439e-08
2.14569e-06
-5.47745e-08
2.2679e-06
3.89191e-08
2.39582e-06
1.93089e-07
2.51692e-06
4.16847e-07
2.60682e-06
7.0576e-07
2.62852e-06
1.02978e-06
2.52747e-06
1.33525e-06
2.24683e-06
1.53286e-06
1.72968e-06
1.55224e-06
9.57143e-07
1.3942e-06
2.25551e-09
1.07567e-06
-1.0232e-06
6.98214e-07
-1.97803e-06
2.94323e-07
-2.96054e-06
-6.10237e-08
-4.48017e-06
-2.37171e-07
-7.08849e-06
-9.91138e-06
1.72668e-09
1.50206e-06
-6.35422e-09
1.89166e-06
3.77387e-10
2.02267e-06
3.50298e-08
2.11104e-06
1.0698e-07
2.19595e-06
2.24181e-07
2.27862e-06
3.93006e-07
2.34809e-06
6.15146e-07
2.38467e-06
8.83188e-07
2.36048e-06
1.17247e-06
2.23818e-06
1.44112e-06
1.97819e-06
1.62554e-06
1.54526e-06
1.66178e-06
9.209e-07
1.52751e-06
1.36529e-07
1.23407e-06
-7.29762e-07
8.51616e-07
-1.59558e-06
4.1846e-07
-2.52738e-06
1.61257e-08
-4.07784e-06
-2.06998e-07
-6.86536e-06
-1.01184e-05
2.16337e-08
1.48043e-06
3.93797e-08
1.87391e-06
7.13401e-08
1.99071e-06
1.29545e-07
2.05284e-06
2.21783e-07
2.10372e-06
3.52656e-07
2.14775e-06
5.24154e-07
2.17659e-06
7.34092e-07
2.17474e-06
9.73228e-07
2.12134e-06
1.22071e-06
1.9907e-06
1.44329e-06
1.7556e-06
1.59635e-06
1.3922e-06
1.63054e-06
8.86708e-07
1.51719e-06
2.49883e-07
1.26041e-06
-4.72986e-07
9.01237e-07
-1.23641e-06
4.74888e-07
-2.10103e-06
6.45595e-08
-3.66751e-06
-1.96336e-07
-6.60447e-06
-1.03147e-05
2.97196e-08
1.45071e-06
6.25643e-08
1.84107e-06
1.12636e-07
1.94064e-06
1.88291e-07
1.97718e-06
2.94539e-07
1.99747e-06
4.3326e-07
2.00903e-06
6.03302e-07
2.00655e-06
7.99716e-07
1.97832e-06
1.01224e-06
1.90882e-06
1.22301e-06
1.77992e-06
1.40559e-06
1.57303e-06
1.52679e-06
1.271e-06
1.55075e-06
8.62753e-07
1.45089e-06
3.49744e-07
1.22594e-06
-2.4804e-07
9.01167e-07
-9.11633e-07
5.02257e-07
-1.70212e-06
8.93082e-08
-3.25456e-06
-1.8964e-07
-6.32552e-06
-1.05044e-05
2.25467e-08
1.42816e-06
6.05711e-08
1.80304e-06
1.2232e-07
1.87889e-06
2.11464e-07
1.88804e-06
3.29242e-07
1.87969e-06
4.74554e-07
1.86371e-06
6.43734e-07
1.83737e-06
8.30047e-07
1.79201e-06
1.02295e-06
1.71592e-06
1.20684e-06
1.59603e-06
1.36051e-06
1.41936e-06
1.45811e-06
1.1734e-06
1.4726e-06
8.48263e-07
1.38246e-06
4.39882e-07
1.18236e-06
-4.79449e-08
8.89575e-07
-6.18844e-07
5.28739e-07
-1.34129e-06
1.31517e-07
-2.85734e-06
-1.31789e-07
-6.06221e-06
-1.06361e-05
-4.97487e-09
1.43313e-06
3.09254e-08
1.76714e-06
9.81753e-08
1.81164e-06
1.99386e-07
1.78683e-06
3.29229e-07
1.74985e-06
4.83174e-07
1.70977e-06
6.55469e-07
1.66508e-06
8.38271e-07
1.60921e-06
1.021e-06
1.53319e-06
1.19003e-06
1.427e-06
1.32788e-06
1.28152e-06
1.41375e-06
1.08753e-06
1.42608e-06
8.35932e-07
1.34633e-06
5.1964e-07
1.16383e-06
1.34552e-07
8.95467e-07
-3.50482e-07
5.72059e-07
-1.01788e-06
2.10361e-07
-2.49564e-06
-1.75572e-08
-5.83429e-06
-1.06537e-05
-5.97395e-08
1.49287e-06
-3.55686e-08
1.74297e-06
3.79316e-08
1.73814e-06
1.53969e-07
1.67079e-06
2.99927e-07
1.60389e-06
4.67385e-07
1.54231e-06
6.49061e-07
1.4834e-06
8.36766e-07
1.4215e-06
1.02018e-06
1.34979e-06
1.18776e-06
1.25942e-06
1.3245e-06
1.14477e-06
1.41446e-06
9.97561e-07
1.43511e-06
8.15282e-07
1.36953e-06
5.8522e-07
1.20118e-06
3.02905e-07
9.48144e-07
-9.74464e-08
6.61054e-07
-7.30788e-07
3.41539e-07
-2.17613e-06
9.6557e-08
-5.58931e-06
-1.05571e-05
-2.18125e-07
1.711e-06
-1.93032e-07
1.71788e-06
-8.8238e-08
1.63335e-06
6.36746e-08
1.51888e-06
2.40327e-07
1.42724e-06
4.32663e-07
1.34998e-06
6.3502e-07
1.28104e-06
8.41133e-07
1.21539e-06
1.04186e-06
1.14906e-06
1.22728e-06
1.074e-06
1.38193e-06
9.90115e-07
1.49099e-06
8.88506e-07
1.53263e-06
7.73639e-07
1.49516e-06
6.22687e-07
1.35377e-06
4.44299e-07
1.12202e-06
1.34304e-07
8.69716e-07
-4.78484e-07
5.59519e-07
-1.86593e-06
2.22305e-07
-5.2521e-06
-1.03348e-05
-3.8915e-07
2.10015e-06
-2.80473e-07
1.6092e-06
-1.19438e-07
1.47231e-06
7.49192e-08
1.32452e-06
2.89947e-07
1.21221e-06
5.26236e-07
1.11369e-06
7.72052e-07
1.03523e-06
1.02046e-06
9.66978e-07
1.25943e-06
9.10095e-07
1.48242e-06
8.51004e-07
1.67432e-06
7.98217e-07
1.83e-06
7.32825e-07
1.92899e-06
6.74652e-07
1.96154e-06
5.90136e-07
1.90519e-06
5.00655e-07
1.79383e-06
2.45658e-07
1.59769e-06
-2.82346e-07
1.30528e-06
-1.57352e-06
6.39467e-07
-4.58629e-06
-9.69537e-06
-4.4397e-07
2.54412e-06
-2.42764e-07
1.408e-06
2.20442e-07
1.00911e-06
6.81774e-07
8.63186e-07
1.12711e-06
7.66869e-07
1.55467e-06
6.86133e-07
1.96473e-06
6.25162e-07
2.359e-06
5.72708e-07
2.73197e-06
5.3713e-07
3.08781e-06
4.95161e-07
3.41337e-06
4.72659e-07
3.71797e-06
4.28224e-07
3.98147e-06
4.11148e-07
4.23146e-06
3.4015e-07
4.43446e-06
2.97654e-07
4.56577e-06
1.14343e-07
4.49342e-06
-2.09991e-07
4.04411e-06
-1.12421e-06
2.35721e-06
-2.89939e-06
-7.33816e-06
2.54412e-06
3.95211e-06
4.96122e-06
5.82441e-06
6.59128e-06
7.27741e-06
7.90257e-06
8.47528e-06
9.01241e-06
9.50757e-06
9.98023e-06
1.04085e-05
1.08196e-05
1.11598e-05
1.14574e-05
1.15718e-05
1.13618e-05
1.02375e-05
7.33816e-06
)
;

boundaryField
{
    movingWall
    {
        type            calculated;
        value           uniform 0;
    }
    fixedWalls
    {
        type            calculated;
        value           uniform 0;
    }
    frontAndBack
    {
        type            empty;
        value           nonuniform 0();
    }
}


// ************************************************************************* //
