/*--------------------------------*- C++ -*----------------------------------*\
| =========                 |                                                 |
| \\      /  F ield         | OpenFOAM: The Open Source CFD Toolbox           |
|  \\    /   O peration     | Version:  4.1                                   |
|   \\  /    A nd           | Web:      www.OpenFOAM.org                      |
|    \\/     M anipulation  |                                                 |
\*---------------------------------------------------------------------------*/
FoamFile
{
    version     2.0;
    format      ascii;
    class       volVectorField;
    location    "2";
    object      U;
}
// * * * * * * * * * * * * * * * * * * * * * * * * * * * * * * * * * * * * * //

dimensions      [0 1 -1 0 0 0 0];

internalField   nonuniform List<vector> 
400
(
(-0.000282851 0.000258723 0)
(-0.00221449 0.00101303 0)
(-0.00579016 0.00147663 0)
(-0.00995512 0.00161444 0)
(-0.0144668 0.00168999 0)
(-0.019485 0.00193267 0)
(-0.0256509 0.00262578 0)
(-0.0341282 0.00419561 0)
(-0.0464166 0.0069584 0)
(-0.0638943 0.0102724 0)
(-0.0859291 0.0118603 0)
(-0.107347 0.00998536 0)
(-0.119656 0.00641811 0)
(-0.124497 0.00266731 0)
(-0.12279 -0.00300533 0)
(-0.111027 -0.0066358 0)
(-0.0935719 -0.0107405 0)
(-0.0681206 -0.0151025 0)
(-0.0379217 -0.0148523 0)
(-0.0117119 -0.00764161 0)
(-0.00119872 0.00231157 0)
(-0.0050225 0.00505297 0)
(-0.0104553 0.00670312 0)
(-0.0169386 0.00759252 0)
(-0.0243596 0.00840652 0)
(-0.0328693 0.00987182 0)
(-0.0430395 0.0128316 0)
(-0.0557256 0.0177513 0)
(-0.0715306 0.0238359 0)
(-0.0901658 0.0285072 0)
(-0.109448 0.0284663 0)
(-0.12445 0.0229704 0)
(-0.132368 0.0129239 0)
(-0.13427 0.00175253 0)
(-0.129221 -0.00922924 0)
(-0.118479 -0.0211228 0)
(-0.101476 -0.0331296 0)
(-0.0779325 -0.0436826 0)
(-0.048943 -0.0487778 0)
(-0.0191753 -0.0357528 0)
(-0.00209103 0.00625563 0)
(-0.00689478 0.0104121 0)
(-0.0127681 0.0131409 0)
(-0.0197953 0.0152552 0)
(-0.0281411 0.0174372 0)
(-0.0380497 0.0204607 0)
(-0.0496329 0.0253515 0)
(-0.062805 0.0325156 0)
(-0.0775623 0.0402462 0)
(-0.0934888 0.0445628 0)
(-0.108164 0.0416752 0)
(-0.118366 0.0309421 0)
(-0.122641 0.0162103 0)
(-0.120591 -0.000206352 0)
(-0.114744 -0.0175377 0)
(-0.105405 -0.0342743 0)
(-0.0917115 -0.0524059 0)
(-0.0730838 -0.070911 0)
(-0.0475729 -0.0846365 0)
(-0.0206785 -0.0764527 0)
(-0.00249921 0.0109352 0)
(-0.00768302 0.0160466 0)
(-0.0134397 0.0195527 0)
(-0.0200752 0.0228018 0)
(-0.0278043 0.026456 0)
(-0.0369071 0.0310744 0)
(-0.0474726 0.0373322 0)
(-0.0590517 0.0454012 0)
(-0.0709965 0.0532378 0)
(-0.0829705 0.0563831 0)
(-0.0934439 0.0509095 0)
(-0.0997692 0.0366684 0)
(-0.100287 0.0172975 0)
(-0.096242 -0.00355946 0)
(-0.0908219 -0.0236272 0)
(-0.082962 -0.0431622 0)
(-0.0731522 -0.0640017 0)
(-0.0601187 -0.0875189 0)
(-0.0404653 -0.109735 0)
(-0.0179385 -0.109724 0)
(-0.00246883 0.0158055 0)
(-0.00749657 0.0216079 0)
(-0.012726 0.0255326 0)
(-0.0184544 0.0295063 0)
(-0.0248059 0.0341903 0)
(-0.0318834 0.039984 0)
(-0.0396773 0.0471467 0)
(-0.0479501 0.0554046 0)
(-0.0561573 0.0626979 0)
(-0.0640246 0.0645634 0)
(-0.0702729 0.0567325 0)
(-0.0736867 0.0395315 0)
(-0.0732766 0.0165919 0)
(-0.0698514 -0.00727176 0)
(-0.0651534 -0.0295896 0)
(-0.0591278 -0.0505738 0)
(-0.0528589 -0.0721565 0)
(-0.0445736 -0.0988713 0)
(-0.0315441 -0.128281 0)
(-0.0151412 -0.13632 0)
(-0.00214538 0.0203292 0)
(-0.00659501 0.0266249 0)
(-0.011016 0.0306702 0)
(-0.0155733 0.0349392 0)
(-0.0202708 0.0400423 0)
(-0.0250055 0.0462642 0)
(-0.0296126 0.0536651 0)
(-0.0341496 0.061977 0)
(-0.0380501 0.0682167 0)
(-0.0406016 0.0687165 0)
(-0.0442098 0.0602783 0)
(-0.0458909 0.0414984 0)
(-0.0457899 0.0165953 0)
(-0.0439577 -0.00954381 0)
(-0.0410038 -0.0338313 0)
(-0.0374173 -0.0554448 0)
(-0.034408 -0.0764756 0)
(-0.0303207 -0.103461 0)
(-0.0245585 -0.140423 0)
(-0.00936467 -0.157086 0)
(-0.0016606 0.0241219 0)
(-0.00527651 0.0307947 0)
(-0.00873974 0.0347387 0)
(-0.0120475 0.0388994 0)
(-0.0151125 0.0438591 0)
(-0.0176844 0.0498021 0)
(-0.019501 0.05667 0)
(-0.0202272 0.0640852 0)
(-0.0199647 0.0693309 0)
(-0.0188976 0.069543 0)
(-0.0184605 0.0618098 0)
(-0.0185296 0.0434023 0)
(-0.0187801 0.0179496 0)
(-0.0187478 -0.00959728 0)
(-0.0183661 -0.0352807 0)
(-0.0179125 -0.0572062 0)
(-0.0184857 -0.077804 0)
(-0.0175463 -0.105215 0)
(-0.0178263 -0.145271 0)
(-0.00669404 -0.171541 0)
(-0.00112085 0.0269897 0)
(-0.0037981 0.0339785 0)
(-0.00627186 0.0376791 0)
(-0.00840248 0.041449 0)
(-0.0100363 0.0458769 0)
(-0.0108719 0.0510301 0)
(-0.0106081 0.0567459 0)
(-0.00882342 0.0624877 0)
(-0.00553668 0.0666912 0)
(-0.00110399 0.0667856 0)
(0.00303704 0.0601455 0)
(0.00540284 0.0439646 0)
(0.00580497 0.0197679 0)
(0.00438553 -0.00766393 0)
(0.00186255 -0.0334479 0)
(-0.00127412 -0.0550117 0)
(-0.00569262 -0.0754925 0)
(-0.0077359 -0.103547 0)
(-0.0127978 -0.147247 0)
(-0.00333241 -0.182398 0)
(-0.000607973 0.0288905 0)
(-0.00235854 0.0361622 0)
(-0.00390288 0.0395558 0)
(-0.00501187 0.0427813 0)
(-0.00548858 0.0464576 0)
(-0.00505182 0.0505853 0)
(-0.00341245 0.0549217 0)
(-0.000258269 0.0589501 0)
(0.00452562 0.0615116 0)
(0.0105581 0.0608541 0)
(0.0167706 0.0550027 0)
(0.0214163 0.0415959 0)
(0.0230984 0.0207372 0)
(0.0216203 -0.0044249 0)
(0.0174437 -0.0289892 0)
(0.0112462 -0.0498278 0)
(0.00348088 -0.0701256 0)
(-0.000354251 -0.0989133 0)
(-0.00927502 -0.145617 0)
(-0.00170038 -0.189538 0)
(-0.000176594 0.0299203 0)
(-0.0010937 0.0374209 0)
(-0.00182766 0.0404999 0)
(-0.00210304 0.0431267 0)
(-0.00170553 0.0459799 0)
(-0.000406333 0.0490455 0)
(0.00202526 0.0520515 0)
(0.00578209 0.0545067 0)
(0.0109203 0.0555517 0)
(0.0171063 0.0538948 0)
(0.023523 0.0482106 0)
(0.0288365 0.0370751 0)
(0.0313881 0.0200291 0)
(0.030398 -0.00121732 0)
(0.0256091 -0.0230913 0)
(0.0184118 -0.0429167 0)
(0.00891744 -0.0629313 0)
(0.00440895 -0.0927891 0)
(-0.00774456 -0.143048 0)
(0.000183009 -0.195398 0)
(0.000168481 0.0301754 0)
(-9.90083e-05 0.0379029 0)
(-0.000167956 0.0406748 0)
(0.000204654 0.0427175 0)
(0.00123385 0.0447776 0)
(0.00309516 0.0468618 0)
(0.0059292 0.0487278 0)
(0.00982263 0.0499291 0)
(0.0147494 0.0498237 0)
(0.0204069 0.0475112 0)
(0.0261365 0.0420483 0)
(0.0309368 0.0325941 0)
(0.0334654 0.0187717 0)
(0.0327935 0.00151675 0)
(0.0283621 -0.0172279 0)
(0.0216441 -0.0354244 0)
(0.0114307 -0.0545647 0)
(0.00758785 -0.0851741 0)
(-0.00758824 -0.138913 0)
(0.0014003 -0.199678 0)
(0.000317429 0.0299269 0)
(0.000577744 0.0377842 0)
(0.00101078 0.0402575 0)
(0.00187311 0.0417541 0)
(0.00334756 0.0430959 0)
(0.00555892 0.0443347 0)
(0.00857252 0.0452738 0)
(0.0123907 0.0455576 0)
(0.0169168 0.0447007 0)
(0.0218731 0.0420899 0)
(0.0267193 0.037071 0)
(0.030696 0.0290934 0)
(0.0328304 0.017894 0)
(0.0322577 0.00384206 0)
(0.0284278 -0.0119034 0)
(0.0225055 -0.0281439 0)
(0.0121199 -0.046103 0)
(0.00974736 -0.0772332 0)
(-0.0086689 -0.134459 0)
(0.00328657 -0.203753 0)
(0.000364292 0.0293767 0)
(0.000879593 0.037217 0)
(0.00166113 0.0393983 0)
(0.00288111 0.0403856 0)
(0.0046791 0.0410853 0)
(0.00712192 0.0416149 0)
(0.0102146 0.0418373 0)
(0.0138986 0.0414809 0)
(0.01803 0.0401881 0)
(0.022345 0.0375304 0)
(0.0264069 0.0330672 0)
(0.0296159 0.0264054 0)
(0.0312615 0.0173236 0)
(0.0306844 0.00594834 0)
(0.0273195 -0.00715193 0)
(0.0222782 -0.0213592 0)
(0.0118921 -0.0378715 0)
(0.0116435 -0.0691355 0)
(-0.0101728 -0.1292 0)
(0.00558425 -0.207244 0)
(0.000224584 0.028791 0)
(0.000749994 0.0364903 0)
(0.00172953 0.0382652 0)
(0.00321154 0.0387249 0)
(0.00527151 0.038835 0)
(0.00790735 0.038768 0)
(0.0110693 0.0384453 0)
(0.0146529 0.0376658 0)
(0.0184904 0.0361625 0)
(0.02233 0.0336319 0)
(0.0258118 0.0297705 0)
(0.0284595 0.0242924 0)
(0.0297276 0.0170023 0)
(0.0291152 0.00786544 0)
(0.0260997 -0.00289696 0)
(0.0219276 -0.0152105 0)
(0.0113071 -0.0302931 0)
(0.0138948 -0.0610623 0)
(-0.0115824 -0.123638 0)
(0.00930981 -0.211194 0)
(-0.000267062 0.0285033 0)
(0.000129432 0.0356465 0)
(0.00115796 0.036897 0)
(0.00283952 0.0367686 0)
(0.00515813 0.0363196 0)
(0.00801306 0.0357468 0)
(0.0113004 0.0350131 0)
(0.0148856 0.0339717 0)
(0.0185866 0.0324201 0)
(0.0221658 0.030136 0)
(0.0253205 0.0269045 0)
(0.0276645 0.0225165 0)
(0.0287639 0.0167856 0)
(0.0282207 0.0095854 0)
(0.0254641 0.000923289 0)
(0.0220921 -0.00957924 0)
(0.0108575 -0.0234887 0)
(0.016791 -0.0533658 0)
(-0.0125625 -0.119117 0)
(0.0141229 -0.215918 0)
(-0.000874369 0.0291016 0)
(-0.00127568 0.0350976 0)
(-0.00014551 0.0355779 0)
(0.00175261 0.0347192 0)
(0.00441262 0.0336473 0)
(0.00757629 0.0325901 0)
(0.0110978 0.0315195 0)
(0.0148263 0.0303148 0)
(0.0185796 0.02882 0)
(0.0221426 0.026854 0)
(0.0252538 0.0242581 0)
(0.0275932 0.020859 0)
(0.0288368 0.0165125 0)
(0.028518 0.0110811 0)
(0.0259727 0.00437612 0)
(0.0233475 -0.00439214 0)
(0.0111641 -0.0175144 0)
(0.0209417 -0.0469276 0)
(-0.0131816 -0.116919 0)
(0.0203586 -0.221164 0)
(-0.00317529 0.0293231 0)
(-0.00493439 0.0331997 0)
(-0.00297656 0.0329994 0)
(-0.00036002 0.0315647 0)
(0.0029397 0.0302425 0)
(0.00664763 0.0289981 0)
(0.0106213 0.0278073 0)
(0.0147314 0.0265847 0)
(0.0188239 0.0252116 0)
(0.0227405 0.023526 0)
(0.0261932 0.0214966 0)
(0.0289481 0.0189904 0)
(0.0304753 0.0160248 0)
(0.0307508 0.0121972 0)
(0.02864 0.00751562 0)
(0.0267694 0.00019709 0)
(0.0141819 -0.0126766 0)
(0.0273603 -0.0418535 0)
(-0.013594 -0.115305 0)
(0.0287069 -0.222229 0)
(-0.00609291 0.0459951 0)
(-0.00803258 0.0413068 0)
(-0.00393922 0.0366156 0)
(-0.000588205 0.0320596 0)
(0.00358066 0.0290488 0)
(0.00809052 0.026689 0)
(0.0129151 0.0248012 0)
(0.0179027 0.0231675 0)
(0.0227808 0.0217226 0)
(0.0274711 0.020264 0)
(0.0315755 0.0188146 0)
(0.0352195 0.017111 0)
(0.0375762 0.0153372 0)
(0.0393572 0.0129991 0)
(0.0383638 0.0104782 0)
(0.0383619 0.00498985 0)
(0.0289319 -0.0076389 0)
(0.0418499 -0.0375916 0)
(-0.00446846 -0.105629 0)
(0.0445769 -0.202158 0)
(-0.00365574 0.0219049 0)
(-0.0113765 0.00954293 0)
(0.000766484 0.0120814 0)
(0.00875009 0.0138459 0)
(0.0178769 0.014151 0)
(0.026761 0.0137618 0)
(0.0350927 0.0133157 0)
(0.043344 0.0128267 0)
(0.0507668 0.0124482 0)
(0.0584262 0.0119183 0)
(0.0646888 0.0114977 0)
(0.0717277 0.0108027 0)
(0.0763511 0.0102636 0)
(0.0825703 0.009119 0)
(0.0850935 0.00764257 0)
(0.0898969 0.00312573 0)
(0.0872019 -0.00559833 0)
(0.0919384 -0.0293474 0)
(0.0456332 -0.075703 0)
(0.0829018 -0.151949 0)
(0.0517776 0.0997601 0)
(0.0592292 0.0620994 0)
(0.0889924 0.0388888 0)
(0.109591 0.0280139 0)
(0.125362 0.0219162 0)
(0.139482 0.0178695 0)
(0.151931 0.015056 0)
(0.164237 0.0128209 0)
(0.174721 0.0113181 0)
(0.185697 0.00978502 0)
(0.194442 0.00906906 0)
(0.204307 0.00775286 0)
(0.211397 0.00762485 0)
(0.219779 0.00603055 0)
(0.224756 0.00635285 0)
(0.230189 0.00318454 0)
(0.228726 0.000318742 0)
(0.220026 -0.00627624 0)
(0.175969 -0.019765 0)
(0.1671 -0.11658 0)
)
;

boundaryField
{
    movingWall
    {
        type            fixedValue;
        value           uniform (1 0 0);
    }
    fixedWalls
    {
        type            noSlip;
    }
    frontAndBack
    {
        type            empty;
    }
}


// ************************************************************************* //
